Program Version,EnergyPlus, Version 9.0.1-bb7ca4f0da, YMD=2020.12.25 19:33
1,5,Environment Title[],Latitude[deg],Longitude[deg],Time Zone[],Elevation[m]
2,8,Day of Simulation[],Month[],Day of Month[],DST Indicator[1=yes 0=no],Hour[],StartMinute[],EndMinute[],DayType
3,5,Cumulative Day of Simulation[],Month[],Day of Month[],DST Indicator[1=yes 0=no],DayType  ! When Daily Meters Requested
4,2,Cumulative Days of Simulation[],Month[]  ! When Monthly Meters Requested
5,1,Cumulative Days of Simulation[] ! When Run Period Meters Requested
6,1,Calendar Year of Simulation[] ! When Annual Meters Requested
88,1,Electricity:Facility [J] !TimeStep
236,1,InteriorEquipment:Electricity [J] !TimeStep
124,1,InteriorLights:Electricity [J] !TimeStep
89,1,Electricity:Facility [J] !Hourly
237,1,InteriorEquipment:Electricity [J] !Hourly
125,1,InteriorLights:Electricity [J] !Hourly
90,7,Electricity:Facility [J] !Daily [Value,Min,Hour,Minute,Max,Hour,Minute]
238,7,InteriorEquipment:Electricity [J] !Daily [Value,Min,Hour,Minute,Max,Hour,Minute]
126,7,InteriorLights:Electricity [J] !Daily [Value,Min,Hour,Minute,Max,Hour,Minute]
91,9,Electricity:Facility [J] !Monthly [Value,Min,Day,Hour,Minute,Max,Day,Hour,Minute]
239,9,InteriorEquipment:Electricity [J] !Monthly [Value,Min,Day,Hour,Minute,Max,Day,Hour,Minute]
127,9,InteriorLights:Electricity [J] !Monthly [Value,Min,Day,Hour,Minute,Max,Day,Hour,Minute]
93,11,Electricity:Facility [J] !RunPeriod [Value,Min,Month,Day,Hour,Minute,Max,Month,Day,Hour,Minute]
241,11,InteriorEquipment:Electricity [J] !RunPeriod [Value,Min,Month,Day,Hour,Minute,Max,Month,Day,Hour,Minute]
129,11,InteriorLights:Electricity [J] !RunPeriod [Value,Min,Month,Day,Hour,Minute,Max,Month,Day,Hour,Minute]
1197,1,DistrictCooling:Facility [J] !Hourly
919,1,DistrictHeating:Facility [J] !Hourly
1343,1,Carbon Equivalent:Facility [kg] !Hourly
1198,7,DistrictCooling:Facility [J] !Daily [Value,Min,Hour,Minute,Max,Hour,Minute]
920,7,DistrictHeating:Facility [J] !Daily [Value,Min,Hour,Minute,Max,Hour,Minute]
1344,7,Carbon Equivalent:Facility [kg] !Daily [Value,Min,Hour,Minute,Max,Hour,Minute]
1199,9,DistrictCooling:Facility [J] !Monthly [Value,Min,Day,Hour,Minute,Max,Day,Hour,Minute]
921,9,DistrictHeating:Facility [J] !Monthly [Value,Min,Day,Hour,Minute,Max,Day,Hour,Minute]
1345,9,Carbon Equivalent:Facility [kg] !Monthly [Value,Min,Day,Hour,Minute,Max,Day,Hour,Minute]
1201,11,DistrictCooling:Facility [J] !RunPeriod [Value,Min,Month,Day,Hour,Minute,Max,Month,Day,Hour,Minute]
923,11,DistrictHeating:Facility [J] !RunPeriod [Value,Min,Month,Day,Hour,Minute,Max,Month,Day,Hour,Minute]
1347,11,Carbon Equivalent:Facility [kg] !RunPeriod [Value,Min,Month,Day,Hour,Minute,Max,Month,Day,Hour,Minute]
1196,1,DistrictCooling:Facility [J] !TimeStep
918,1,DistrictHeating:Facility [J] !TimeStep
1342,1,Carbon Equivalent:Facility [kg] !TimeStep
End of Data Dictionary
1,GINEVRARESIDENCE (O1-O1:31-12),  46.25,   6.13,   1.00, 416.00
2,1, 1, 1, 0, 1, 0.00,30.00,Sunday
88,0.0
124,0.0
236,0.0
918,1971399.0061298805
1196,0.0
1342,0.0
2,1, 1, 1, 0, 1,30.00,60.00,Sunday
88,0.0
124,0.0
236,0.0
918,2045661.129908815
1196,0.0
1342,0.0
2,1, 1, 1, 0, 1, 0.00,60.00,Sunday
89,0.0
125,0.0
237,0.0
919,4017060.1360386956
1197,0.0
1343,0.0
2,1, 1, 1, 0, 2, 0.00,30.00,Sunday
88,0.0
124,0.0
236,0.0
918,2023304.723013111
1196,0.0
1342,0.0
2,1, 1, 1, 0, 2,30.00,60.00,Sunday
88,0.0
124,0.0
236,0.0
918,2001224.5713065766
1196,0.0
1342,0.0
2,1, 1, 1, 0, 2, 0.00,60.00,Sunday
89,0.0
125,0.0
237,0.0
919,4024529.2943196876
1197,0.0
1343,0.0
2,1, 1, 1, 0, 3, 0.00,30.00,Sunday
88,0.0
124,0.0
236,0.0
918,1987075.5772076436
1196,0.0
1342,0.0
2,1, 1, 1, 0, 3,30.00,60.00,Sunday
88,0.0
124,0.0
236,0.0
918,1972621.7747789494
1196,0.0
1342,0.0
2,1, 1, 1, 0, 3, 0.00,60.00,Sunday
89,0.0
125,0.0
237,0.0
919,3959697.3519865928
1197,0.0
1343,0.0
2,1, 1, 1, 0, 4, 0.00,30.00,Sunday
88,0.0
124,0.0
236,0.0
918,1974149.0193469614
1196,0.0
1342,0.0
2,1, 1, 1, 0, 4,30.00,60.00,Sunday
88,0.0
124,0.0
236,0.0
918,1975424.4535776624
1196,0.0
1342,0.0
2,1, 1, 1, 0, 4, 0.00,60.00,Sunday
89,0.0
125,0.0
237,0.0
919,3949573.4729246238
1197,0.0
1343,0.0
2,1, 1, 1, 0, 5, 0.00,30.00,Sunday
88,0.0
124,0.0
236,0.0
918,1981818.1537394995
1196,0.0
1342,0.0
2,1, 1, 1, 0, 5,30.00,60.00,Sunday
88,0.0
124,0.0
236,0.0
918,1988043.1185957897
1196,0.0
1342,0.0
2,1, 1, 1, 0, 5, 0.00,60.00,Sunday
89,0.0
125,0.0
237,0.0
919,3969861.272335289
1197,0.0
1343,0.0
2,1, 1, 1, 0, 6, 0.00,30.00,Sunday
88,0.0
124,0.0
236,0.0
918,1998350.1819985416
1196,0.0
1342,0.0
2,1, 1, 1, 0, 6,30.00,60.00,Sunday
88,0.0
124,0.0
236,0.0
918,2008634.6060640279
1196,0.0
1342,0.0
2,1, 1, 1, 0, 6, 0.00,60.00,Sunday
89,0.0
125,0.0
237,0.0
919,4006984.7880625699
1197,0.0
1343,0.0
2,1, 1, 1, 0, 7, 0.00,30.00,Sunday
88,0.0
124,0.0
236,0.0
918,2014829.1576995785
1196,0.0
1342,0.0
2,1, 1, 1, 0, 7,30.00,60.00,Sunday
88,0.0
124,0.0
236,0.0
918,2021042.9603698734
1196,0.0
1342,0.0
2,1, 1, 1, 0, 7, 0.00,60.00,Sunday
89,0.0
125,0.0
237,0.0
919,4035872.118069452
1197,0.0
1343,0.0
2,1, 1, 1, 0, 8, 0.00,30.00,Sunday
88,0.0
124,0.0
236,0.0
918,2005556.6945319793
1196,0.0
1342,0.0
2,1, 1, 1, 0, 8,30.00,60.00,Sunday
88,0.0
124,0.0
236,0.0
918,1990015.8307366006
1196,0.0
1342,0.0
2,1, 1, 1, 0, 8, 0.00,60.00,Sunday
89,0.0
125,0.0
237,0.0
919,3995572.52526858
1197,0.0
1343,0.0
2,1, 1, 1, 0, 9, 0.00,30.00,Sunday
88,0.0
124,0.0
236,0.0
918,1973514.8468956873
1196,0.0
1342,0.0
2,1, 1, 1, 0, 9,30.00,60.00,Sunday
88,0.0
124,0.0
236,0.0
918,1952565.6450098979
1196,0.0
1342,0.0
2,1, 1, 1, 0, 9, 0.00,60.00,Sunday
89,0.0
125,0.0
237,0.0
919,3926080.491905585
1197,0.0
1343,0.0
2,1, 1, 1, 0,10, 0.00,30.00,Sunday
88,527217.75
124,0.0
236,527217.75
918,2489833.7769731597
1196,0.0
1342,0.0
2,1, 1, 1, 0,10,30.00,60.00,Sunday
88,527217.75
124,0.0
236,527217.75
918,2458305.394873449
1196,0.0
1342,0.0
2,1, 1, 1, 0,10, 0.00,60.00,Sunday
89,1054435.5
125,0.0
237,1054435.5
919,4948139.171846609
1197,0.0
1343,0.0
2,1, 1, 1, 0,11, 0.00,30.00,Sunday
88,527217.75
124,0.0
236,527217.75
918,2413581.2691549279
1196,0.0
1342,0.0
2,1, 1, 1, 0,11,30.00,60.00,Sunday
88,527217.75
124,0.0
236,527217.75
918,2383181.948849223
1196,0.0
1342,0.0
2,1, 1, 1, 0,11, 0.00,60.00,Sunday
89,1054435.5
125,0.0
237,1054435.5
919,4796763.21800415
1197,0.0
1343,0.0
2,1, 1, 1, 0,12, 0.00,30.00,Sunday
88,527217.75
124,0.0
236,527217.75
918,2350857.149820051
1196,0.0
1342,0.0
2,1, 1, 1, 0,12,30.00,60.00,Sunday
88,527217.75
124,0.0
236,527217.75
918,2322845.4061013686
1196,0.0
1342,0.0
2,1, 1, 1, 0,12, 0.00,60.00,Sunday
89,1054435.5
125,0.0
237,1054435.5
919,4673702.5559214199
1197,0.0
1343,0.0
2,1, 1, 1, 0,13, 0.00,30.00,Sunday
88,527217.75
124,0.0
236,527217.75
918,2299412.88376331
1196,0.0
1342,0.0
2,1, 1, 1, 0,13,30.00,60.00,Sunday
88,527217.75
124,0.0
236,527217.75
918,2271067.0731249738
1196,0.0
1342,0.0
2,1, 1, 1, 0,13, 0.00,60.00,Sunday
89,1054435.5
125,0.0
237,1054435.5
919,4570479.956888284
1197,0.0
1343,0.0
2,1, 1, 1, 0,14, 0.00,30.00,Sunday
88,527217.75
124,0.0
236,527217.75
918,2264216.1957254188
1196,0.0
1342,0.0
2,1, 1, 1, 0,14,30.00,60.00,Sunday
88,527217.75
124,0.0
236,527217.75
918,2257516.7965396444
1196,0.0
1342,0.0
2,1, 1, 1, 0,14, 0.00,60.00,Sunday
89,1054435.5
125,0.0
237,1054435.5
919,4521732.992265062
1197,0.0
1343,0.0
2,1, 1, 1, 0,15, 0.00,30.00,Sunday
88,527217.75
124,0.0
236,527217.75
918,2250146.6830571338
1196,0.0
1342,0.0
2,1, 1, 1, 0,15,30.00,60.00,Sunday
88,527217.75
124,0.0
236,527217.75
918,2243249.2948726646
1196,0.0
1342,0.0
2,1, 1, 1, 0,15, 0.00,60.00,Sunday
89,1054435.5
125,0.0
237,1054435.5
919,4493395.977929798
1197,0.0
1343,0.0
2,1, 1, 1, 0,16, 0.00,30.00,Sunday
88,527217.75
124,0.0
236,527217.75
918,2236369.292249294
1196,0.0
1342,0.0
2,1, 1, 1, 0,16,30.00,60.00,Sunday
88,527217.75
124,0.0
236,527217.75
918,2229586.7314671
1196,0.0
1342,0.0
2,1, 1, 1, 0,16, 0.00,60.00,Sunday
89,1054435.5
125,0.0
237,1054435.5
919,4465956.023716394
1197,0.0
1343,0.0
2,1, 1, 1, 0,17, 0.00,30.00,Sunday
88,527217.75
124,0.0
236,527217.75
918,2244919.9542350836
1196,0.0
1342,0.0
2,1, 1, 1, 0,17,30.00,60.00,Sunday
88,527217.75
124,0.0
236,527217.75
918,2259631.753494547
1196,0.0
1342,0.0
2,1, 1, 1, 0,17, 0.00,60.00,Sunday
89,1054435.5
125,0.0
237,1054435.5
919,4504551.70772963
1197,0.0
1343,0.0
2,1, 1, 1, 0,18, 0.00,30.00,Sunday
88,527217.75
124,0.0
236,527217.75
918,2277068.2900229257
1196,0.0
1342,0.0
2,1, 1, 1, 0,18,30.00,60.00,Sunday
88,527217.75
124,0.0
236,527217.75
918,2294346.3213918886
1196,0.0
1342,0.0
2,1, 1, 1, 0,18, 0.00,60.00,Sunday
89,1054435.5
125,0.0
237,1054435.5
919,4571414.611414814
1197,0.0
1343,0.0
2,1, 1, 1, 0,19, 0.00,30.00,Sunday
88,738104.85
124,210887.09999999999
236,527217.75
918,2215796.574484909
1196,0.0
1342,0.0
2,1, 1, 1, 0,19,30.00,60.00,Sunday
88,738104.85
124,210887.09999999999
236,527217.75
918,2222924.744625897
1196,0.0
1342,0.0
2,1, 1, 1, 0,19, 0.00,60.00,Sunday
89,1476209.7
125,421774.19999999998
237,1054435.5
919,4438721.319110806
1197,0.0
1343,0.0
2,1, 1, 1, 0,20, 0.00,30.00,Sunday
88,738104.85
124,210887.09999999999
236,527217.75
918,2240428.154361115
1196,0.0
1342,0.0
2,1, 1, 1, 0,20,30.00,60.00,Sunday
88,738104.85
124,210887.09999999999
236,527217.75
918,2258344.096941232
1196,0.0
1342,0.0
2,1, 1, 1, 0,20, 0.00,60.00,Sunday
89,1476209.7
125,421774.19999999998
237,1054435.5
919,4498772.251302347
1197,0.0
1343,0.0
2,1, 1, 1, 0,21, 0.00,30.00,Sunday
88,738104.85
124,210887.09999999999
236,527217.75
918,2272320.776882708
1196,0.0
1342,0.0
2,1, 1, 1, 0,21,30.00,60.00,Sunday
88,738104.85
124,210887.09999999999
236,527217.75
918,2286660.764741596
1196,0.0
1342,0.0
2,1, 1, 1, 0,21, 0.00,60.00,Sunday
89,1476209.7
125,421774.19999999998
237,1054435.5
919,4558981.541624304
1197,0.0
1343,0.0
2,1, 1, 1, 0,22, 0.00,30.00,Sunday
88,738104.85
124,210887.09999999999
236,527217.75
918,1834313.9071170213
1196,0.0
1342,0.0
2,1, 1, 1, 0,22,30.00,60.00,Sunday
88,738104.85
124,210887.09999999999
236,527217.75
918,1853517.8771893564
1196,0.0
1342,0.0
2,1, 1, 1, 0,22, 0.00,60.00,Sunday
89,1476209.7
125,421774.19999999998
237,1054435.5
919,3687831.7843063778
1197,0.0
1343,0.0
2,1, 1, 1, 0,23, 0.00,30.00,Sunday
88,210887.09999999999
124,210887.09999999999
236,0.0
918,1778080.612321048
1196,0.0
1342,0.0
2,1, 1, 1, 0,23,30.00,60.00,Sunday
88,210887.09999999999
124,210887.09999999999
236,0.0
918,1788661.063895368
1196,0.0
1342,0.0
2,1, 1, 1, 0,23, 0.00,60.00,Sunday
89,421774.19999999998
125,421774.19999999998
237,0.0
919,3566741.676216416
1197,0.0
1343,0.0
2,1, 1, 1, 0,24, 0.00,30.00,Sunday
88,0.0
124,0.0
236,0.0
918,1886658.9595970149
1196,0.0
1342,0.0
2,1, 1, 1, 0,24,30.00,60.00,Sunday
88,0.0
124,0.0
236,0.0
918,1899240.8873926043
1196,0.0
1342,0.0
2,1, 1, 1, 0,24, 0.00,60.00,Sunday
89,0.0
125,0.0
237,0.0
919,3785899.846989619
1197,0.0
1343,0.0
3,1, 1, 1, 0,Sunday
90,15816532.499999997,0.0, 1,30,738104.85,19,30
126,2108871.0000000006,0.0, 1,30,210887.09999999999,19,30
238,13707661.5,0.0, 1,30,527217.75,10,30
920,101968316.08617714,1778080.612321048,23,30,2489833.7769731597,10,30
1198,0.0,0.0, 1,30,0.0, 1,30
1344,0.0,0.0, 1,30,0.0, 1,30
2,2, 1, 2, 0, 1, 0.00,30.00,Monday
88,0.0
124,0.0
236,0.0
918,1914422.9577447624
1196,0.0
1342,0.0
2,2, 1, 2, 0, 1,30.00,60.00,Monday
88,0.0
124,0.0
236,0.0
918,1929107.14610343
1196,0.0
1342,0.0
2,2, 1, 2, 0, 1, 0.00,60.00,Monday
89,0.0
125,0.0
237,0.0
919,3843530.1038481926
1197,0.0
1343,0.0
2,2, 1, 2, 0, 2, 0.00,30.00,Monday
88,0.0
124,0.0
236,0.0
918,1939179.0636085245
1196,0.0
1342,0.0
2,2, 1, 2, 0, 2,30.00,60.00,Monday
88,0.0
124,0.0
236,0.0
918,1949050.4887598316
1196,0.0
1342,0.0
2,2, 1, 2, 0, 2, 0.00,60.00,Monday
89,0.0
125,0.0
237,0.0
919,3888229.552368356
1197,0.0
1343,0.0
2,2, 1, 2, 0, 3, 0.00,30.00,Monday
88,0.0
124,0.0
236,0.0
918,1954789.4896466579
1196,0.0
1342,0.0
2,2, 1, 2, 0, 3,30.00,60.00,Monday
88,0.0
124,0.0
236,0.0
918,1960433.6369037848
1196,0.0
1342,0.0
2,2, 1, 2, 0, 3, 0.00,60.00,Monday
89,0.0
125,0.0
237,0.0
919,3915223.1265504427
1197,0.0
1343,0.0
2,2, 1, 2, 0, 4, 0.00,30.00,Monday
88,0.0
124,0.0
236,0.0
918,1969869.4499624493
1196,0.0
1342,0.0
2,2, 1, 2, 0, 4,30.00,60.00,Monday
88,0.0
124,0.0
236,0.0
918,1978894.3173047053
1196,0.0
1342,0.0
2,2, 1, 2, 0, 4, 0.00,60.00,Monday
89,0.0
125,0.0
237,0.0
919,3948763.7672671547
1197,0.0
1343,0.0
2,2, 1, 2, 0, 5, 0.00,30.00,Monday
88,0.0
124,0.0
236,0.0
918,2000710.5840657575
1196,0.0
1342,0.0
2,2, 1, 2, 0, 5,30.00,60.00,Monday
88,0.0
124,0.0
236,0.0
918,2022348.185883499
1196,0.0
1342,0.0
2,2, 1, 2, 0, 5, 0.00,60.00,Monday
89,0.0
125,0.0
237,0.0
919,4023058.7699492566
1197,0.0
1343,0.0
2,2, 1, 2, 0, 6, 0.00,30.00,Monday
88,0.0
124,0.0
236,0.0
918,2044035.2569290302
1196,0.0
1342,0.0
2,2, 1, 2, 0, 6,30.00,60.00,Monday
88,0.0
124,0.0
236,0.0
918,2065786.594556162
1196,0.0
1342,0.0
2,2, 1, 2, 0, 6, 0.00,60.00,Monday
89,0.0
125,0.0
237,0.0
919,4109821.851485192
1197,0.0
1343,0.0
2,2, 1, 2, 0, 7, 0.00,30.00,Monday
88,0.0
124,0.0
236,0.0
918,2087608.0355283214
1196,0.0
1342,0.0
2,2, 1, 2, 0, 7,30.00,60.00,Monday
88,0.0
124,0.0
236,0.0
918,2109492.783522779
1196,0.0
1342,0.0
2,2, 1, 2, 0, 7, 0.00,60.00,Monday
89,0.0
125,0.0
237,0.0
919,4197100.8190511
1197,0.0
1343,0.0
2,2, 1, 2, 0, 8, 0.00,30.00,Monday
88,0.0
124,0.0
236,0.0
918,2317990.564697611
1196,0.0
1342,0.0
2,2, 1, 2, 0, 8,30.00,60.00,Monday
88,0.0
124,0.0
236,0.0
918,2291376.584048669
1196,0.0
1342,0.0
2,2, 1, 2, 0, 8, 0.00,60.00,Monday
89,0.0
125,0.0
237,0.0
919,4609367.14874628
1197,0.0
1343,0.0
2,2, 1, 2, 0, 9, 0.00,30.00,Monday
88,0.0
124,0.0
236,0.0
918,2503474.0853431306
1196,0.0
1342,0.0
2,2, 1, 2, 0, 9,30.00,60.00,Monday
88,0.0
124,0.0
236,0.0
918,2477107.488157568
1196,0.0
1342,0.0
2,2, 1, 2, 0, 9, 0.00,60.00,Monday
89,0.0
125,0.0
237,0.0
919,4980581.573500698
1197,0.0
1343,0.0
2,2, 1, 2, 0,10, 0.00,30.00,Monday
88,527217.75
124,0.0
236,527217.75
918,2302133.036084165
1196,0.0
1342,0.0
2,2, 1, 2, 0,10,30.00,60.00,Monday
88,527217.75
124,0.0
236,527217.75
918,2266097.645538204
1196,0.0
1342,0.0
2,2, 1, 2, 0,10, 0.00,60.00,Monday
89,1054435.5
125,0.0
237,1054435.5
919,4568230.681622369
1197,0.0
1343,0.0
2,2, 1, 2, 0,11, 0.00,30.00,Monday
88,527217.75
124,0.0
236,527217.75
918,1938108.7025165046
1196,0.0
1342,0.0
2,2, 1, 2, 0,11,30.00,60.00,Monday
88,527217.75
124,0.0
236,527217.75
918,1845435.848303492
1196,0.0
1342,0.0
2,2, 1, 2, 0,11, 0.00,60.00,Monday
89,1054435.5
125,0.0
237,1054435.5
919,3783544.5508199969
1197,0.0
1343,0.0
2,2, 1, 2, 0,12, 0.00,30.00,Monday
88,527217.75
124,0.0
236,527217.75
918,1748400.0445324719
1196,0.0
1342,0.0
2,2, 1, 2, 0,12,30.00,60.00,Monday
88,527217.75
124,0.0
236,527217.75
918,1655074.605609311
1196,0.0
1342,0.0
2,2, 1, 2, 0,12, 0.00,60.00,Monday
89,1054435.5
125,0.0
237,1054435.5
919,3403474.650141783
1197,0.0
1343,0.0
2,2, 1, 2, 0,13, 0.00,30.00,Monday
88,527217.75
124,0.0
236,527217.75
918,1568315.2230070683
1196,0.0
1342,0.0
2,2, 1, 2, 0,13,30.00,60.00,Monday
88,527217.75
124,0.0
236,527217.75
918,1479321.1589567019
1196,0.0
1342,0.0
2,2, 1, 2, 0,13, 0.00,60.00,Monday
89,1054435.5
125,0.0
237,1054435.5
919,3047636.38196377
1197,0.0
1343,0.0
2,2, 1, 2, 0,14, 0.00,30.00,Monday
88,527217.75
124,0.0
236,527217.75
918,1470806.1760071805
1196,0.0
1342,0.0
2,2, 1, 2, 0,14,30.00,60.00,Monday
88,527217.75
124,0.0
236,527217.75
918,1465135.1817251533
1196,0.0
1342,0.0
2,2, 1, 2, 0,14, 0.00,60.00,Monday
89,1054435.5
125,0.0
237,1054435.5
919,2935941.3577323339
1197,0.0
1343,0.0
2,2, 1, 2, 0,15, 0.00,30.00,Monday
88,527217.75
124,0.0
236,527217.75
918,1461298.4936916815
1196,0.0
1342,0.0
2,2, 1, 2, 0,15,30.00,60.00,Monday
88,527217.75
124,0.0
236,527217.75
918,1459663.8070871779
1196,0.0
1342,0.0
2,2, 1, 2, 0,15, 0.00,60.00,Monday
89,1054435.5
125,0.0
237,1054435.5
919,2920962.3007788595
1197,0.0
1343,0.0
2,2, 1, 2, 0,16, 0.00,30.00,Monday
88,527217.75
124,0.0
236,527217.75
918,1459988.9320888529
1196,0.0
1342,0.0
2,2, 1, 2, 0,16,30.00,60.00,Monday
88,527217.75
124,0.0
236,527217.75
918,1468568.2186566215
1196,0.0
1342,0.0
2,2, 1, 2, 0,16, 0.00,60.00,Monday
89,1054435.5
125,0.0
237,1054435.5
919,2928557.1507454745
1197,0.0
1343,0.0
2,2, 1, 2, 0,17, 0.00,30.00,Monday
88,527217.75
124,0.0
236,527217.75
918,1569234.4916762063
1196,0.0
1342,0.0
2,2, 1, 2, 0,17,30.00,60.00,Monday
88,527217.75
124,0.0
236,527217.75
918,1663866.1102539153
1196,0.0
1342,0.0
2,2, 1, 2, 0,17, 0.00,60.00,Monday
89,1054435.5
125,0.0
237,1054435.5
919,3233100.6019301216
1197,0.0
1343,0.0
2,2, 1, 2, 0,18, 0.00,30.00,Monday
88,527217.75
124,0.0
236,527217.75
918,1818537.907146675
1196,0.0
1342,0.0
2,2, 1, 2, 0,18,30.00,60.00,Monday
88,527217.75
124,0.0
236,527217.75
918,1854797.3314640299
1196,0.0
1342,0.0
2,2, 1, 2, 0,18, 0.00,60.00,Monday
89,1054435.5
125,0.0
237,1054435.5
919,3673335.238610705
1197,0.0
1343,0.0
2,2, 1, 2, 0,19, 0.00,30.00,Monday
88,738104.85
124,210887.09999999999
236,527217.75
918,1917165.177655283
1196,0.0
1342,0.0
2,2, 1, 2, 0,19,30.00,60.00,Monday
88,738104.85
124,210887.09999999999
236,527217.75
918,1946946.6373542019
1196,0.0
1342,0.0
2,2, 1, 2, 0,19, 0.00,60.00,Monday
89,1476209.7
125,421774.19999999998
237,1054435.5
919,3864111.815009485
1197,0.0
1343,0.0
2,2, 1, 2, 0,20, 0.00,30.00,Monday
88,738104.85
124,210887.09999999999
236,527217.75
918,2077700.2225533669
1196,0.0
1342,0.0
2,2, 1, 2, 0,20,30.00,60.00,Monday
88,738104.85
124,210887.09999999999
236,527217.75
918,2090797.6991549484
1196,0.0
1342,0.0
2,2, 1, 2, 0,20, 0.00,60.00,Monday
89,1476209.7
125,421774.19999999998
237,1054435.5
919,4168497.921708315
1197,0.0
1343,0.0
2,2, 1, 2, 0,21, 0.00,30.00,Monday
88,738104.85
124,210887.09999999999
236,527217.75
918,2222525.5007563869
1196,0.0
1342,0.0
2,2, 1, 2, 0,21,30.00,60.00,Monday
88,738104.85
124,210887.09999999999
236,527217.75
918,2236497.097380179
1196,0.0
1342,0.0
2,2, 1, 2, 0,21, 0.00,60.00,Monday
89,1476209.7
125,421774.19999999998
237,1054435.5
919,4459022.598136566
1197,0.0
1343,0.0
2,2, 1, 2, 0,22, 0.00,30.00,Monday
88,738104.85
124,210887.09999999999
236,527217.75
918,2250630.497814151
1196,0.0
1342,0.0
2,2, 1, 2, 0,22,30.00,60.00,Monday
88,738104.85
124,210887.09999999999
236,527217.75
918,2264680.357192776
1196,0.0
1342,0.0
2,2, 1, 2, 0,22, 0.00,60.00,Monday
89,1476209.7
125,421774.19999999998
237,1054435.5
919,4515310.855006928
1197,0.0
1343,0.0
2,2, 1, 2, 0,23, 0.00,30.00,Monday
88,210887.09999999999
124,210887.09999999999
236,0.0
918,2038243.3695026725
1196,0.0
1342,0.0
2,2, 1, 2, 0,23,30.00,60.00,Monday
88,210887.09999999999
124,210887.09999999999
236,0.0
918,2013215.1500418822
1196,0.0
1342,0.0
2,2, 1, 2, 0,23, 0.00,60.00,Monday
89,421774.19999999998
125,421774.19999999998
237,0.0
919,4051458.519544555
1197,0.0
1343,0.0
2,2, 1, 2, 0,24, 0.00,30.00,Monday
88,0.0
124,0.0
236,0.0
918,1847669.3190023462
1196,0.0
1342,0.0
2,2, 1, 2, 0,24,30.00,60.00,Monday
88,0.0
124,0.0
236,0.0
918,1832276.1161222812
1196,0.0
1342,0.0
2,2, 1, 2, 0,24, 0.00,60.00,Monday
89,0.0
125,0.0
237,0.0
919,3679945.4351246275
1197,0.0
1343,0.0
3,2, 1, 2, 0,Monday
90,15816532.499999997,0.0, 1,30,738104.85,19,30
126,2108871.0000000006,0.0, 1,30,210887.09999999999,19,30
238,13707661.5,0.0, 1,30,527217.75,10,30
920,92748806.77164252,1459663.8070871779,15,60,2503474.0853431306, 9,30
1198,0.0,0.0, 1,30,0.0, 1,30
1344,0.0,0.0, 1,30,0.0, 1,30
2,3, 1, 3, 0, 1, 0.00,30.00,Tuesday
88,0.0
124,0.0
236,0.0
918,1694222.1326946207
1196,0.0
1342,0.0
2,3, 1, 3, 0, 1,30.00,60.00,Tuesday
88,0.0
124,0.0
236,0.0
918,1673529.2010853324
1196,0.0
1342,0.0
2,3, 1, 3, 0, 1, 0.00,60.00,Tuesday
89,0.0
125,0.0
237,0.0
919,3367751.333779953
1197,0.0
1343,0.0
2,3, 1, 3, 0, 2, 0.00,30.00,Tuesday
88,0.0
124,0.0
236,0.0
918,1671184.6997109629
1196,0.0
1342,0.0
2,3, 1, 3, 0, 2,30.00,60.00,Tuesday
88,0.0
124,0.0
236,0.0
918,1668608.7994514239
1196,0.0
1342,0.0
2,3, 1, 3, 0, 2, 0.00,60.00,Tuesday
89,0.0
125,0.0
237,0.0
919,3339793.4991623868
1197,0.0
1343,0.0
2,3, 1, 3, 0, 3, 0.00,30.00,Tuesday
88,0.0
124,0.0
236,0.0
918,1666566.3218370183
1196,0.0
1342,0.0
2,3, 1, 3, 0, 3,30.00,60.00,Tuesday
88,0.0
124,0.0
236,0.0
918,1664401.954513045
1196,0.0
1342,0.0
2,3, 1, 3, 0, 3, 0.00,60.00,Tuesday
89,0.0
125,0.0
237,0.0
919,3330968.2763500635
1197,0.0
1343,0.0
2,3, 1, 3, 0, 4, 0.00,30.00,Tuesday
88,0.0
124,0.0
236,0.0
918,1661474.8302054113
1196,0.0
1342,0.0
2,3, 1, 3, 0, 4,30.00,60.00,Tuesday
88,0.0
124,0.0
236,0.0
918,1658480.7723864676
1196,0.0
1342,0.0
2,3, 1, 3, 0, 4, 0.00,60.00,Tuesday
89,0.0
125,0.0
237,0.0
919,3319955.6025918789
1197,0.0
1343,0.0
2,3, 1, 3, 0, 5, 0.00,30.00,Tuesday
88,0.0
124,0.0
236,0.0
918,1644153.5272294912
1196,0.0
1342,0.0
2,3, 1, 3, 0, 5,30.00,60.00,Tuesday
88,0.0
124,0.0
236,0.0
918,1629664.8410527223
1196,0.0
1342,0.0
2,3, 1, 3, 0, 5, 0.00,60.00,Tuesday
89,0.0
125,0.0
237,0.0
919,3273818.3682822135
1197,0.0
1343,0.0
2,3, 1, 3, 0, 6, 0.00,30.00,Tuesday
88,0.0
124,0.0
236,0.0
918,1618374.8226454347
1196,0.0
1342,0.0
2,3, 1, 3, 0, 6,30.00,60.00,Tuesday
88,0.0
124,0.0
236,0.0
918,1607100.2786265733
1196,0.0
1342,0.0
2,3, 1, 3, 0, 6, 0.00,60.00,Tuesday
89,0.0
125,0.0
237,0.0
919,3225475.101272008
1197,0.0
1343,0.0
2,3, 1, 3, 0, 7, 0.00,30.00,Tuesday
88,0.0
124,0.0
236,0.0
918,1591967.726995911
1196,0.0
1342,0.0
2,3, 1, 3, 0, 7,30.00,60.00,Tuesday
88,0.0
124,0.0
236,0.0
918,1576805.936457541
1196,0.0
1342,0.0
2,3, 1, 3, 0, 7, 0.00,60.00,Tuesday
89,0.0
125,0.0
237,0.0
919,3168773.6634534525
1197,0.0
1343,0.0
2,3, 1, 3, 0, 8, 0.00,30.00,Tuesday
88,0.0
124,0.0
236,0.0
918,1770547.0656186627
1196,0.0
1342,0.0
2,3, 1, 3, 0, 8,30.00,60.00,Tuesday
88,0.0
124,0.0
236,0.0
918,1728615.248941944
1196,0.0
1342,0.0
2,3, 1, 3, 0, 8, 0.00,60.00,Tuesday
89,0.0
125,0.0
237,0.0
919,3499162.3145606068
1197,0.0
1343,0.0
2,3, 1, 3, 0, 9, 0.00,30.00,Tuesday
88,0.0
124,0.0
236,0.0
918,1925563.679164853
1196,0.0
1342,0.0
2,3, 1, 3, 0, 9,30.00,60.00,Tuesday
88,0.0
124,0.0
236,0.0
918,1886039.789003691
1196,0.0
1342,0.0
2,3, 1, 3, 0, 9, 0.00,60.00,Tuesday
89,0.0
125,0.0
237,0.0
919,3811603.4681685438
1197,0.0
1343,0.0
2,3, 1, 3, 0,10, 0.00,30.00,Tuesday
88,527217.75
124,0.0
236,527217.75
918,1656031.2364726044
1196,0.0
1342,0.0
2,3, 1, 3, 0,10,30.00,60.00,Tuesday
88,527217.75
124,0.0
236,527217.75
918,1607585.271801026
1196,0.0
1342,0.0
2,3, 1, 3, 0,10, 0.00,60.00,Tuesday
89,1054435.5
125,0.0
237,1054435.5
919,3263616.5082736306
1197,0.0
1343,0.0
2,3, 1, 3, 0,11, 0.00,30.00,Tuesday
88,527217.75
124,0.0
236,527217.75
918,1332991.9808614224
1196,0.0
1342,0.0
2,3, 1, 3, 0,11,30.00,60.00,Tuesday
88,527217.75
124,0.0
236,527217.75
918,1294654.630118465
1196,0.0
1342,0.0
2,3, 1, 3, 0,11, 0.00,60.00,Tuesday
89,1054435.5
125,0.0
237,1054435.5
919,2627646.6109798878
1197,0.0
1343,0.0
2,3, 1, 3, 0,12, 0.00,30.00,Tuesday
88,527217.75
124,0.0
236,527217.75
918,1256272.1632881584
1196,0.0
1342,0.0
2,3, 1, 3, 0,12,30.00,60.00,Tuesday
88,527217.75
124,0.0
236,527217.75
918,1218742.2849163959
1196,0.0
1342,0.0
2,3, 1, 3, 0,12, 0.00,60.00,Tuesday
89,1054435.5
125,0.0
237,1054435.5
919,2475014.448204554
1197,0.0
1343,0.0
2,3, 1, 3, 0,13, 0.00,30.00,Tuesday
88,527217.75
124,0.0
236,527217.75
918,1205858.8290227019
1196,0.0
1342,0.0
2,3, 1, 3, 0,13,30.00,60.00,Tuesday
88,527217.75
124,0.0
236,527217.75
918,1170413.2799280638
1196,0.0
1342,0.0
2,3, 1, 3, 0,13, 0.00,60.00,Tuesday
89,1054435.5
125,0.0
237,1054435.5
919,2376272.108950766
1197,0.0
1343,0.0
2,3, 1, 3, 0,14, 0.00,30.00,Tuesday
88,527217.75
124,0.0
236,527217.75
918,1203819.8128048499
1196,0.0
1342,0.0
2,3, 1, 3, 0,14,30.00,60.00,Tuesday
88,527217.75
124,0.0
236,527217.75
918,1217682.9272195674
1196,0.0
1342,0.0
2,3, 1, 3, 0,14, 0.00,60.00,Tuesday
89,1054435.5
125,0.0
237,1054435.5
919,2421502.740024417
1197,0.0
1343,0.0
2,3, 1, 3, 0,15, 0.00,30.00,Tuesday
88,527217.75
124,0.0
236,527217.75
918,1252717.8344062132
1196,0.0
1342,0.0
2,3, 1, 3, 0,15,30.00,60.00,Tuesday
88,527217.75
124,0.0
236,527217.75
918,1288517.4407243289
1196,0.0
1342,0.0
2,3, 1, 3, 0,15, 0.00,60.00,Tuesday
89,1054435.5
125,0.0
237,1054435.5
919,2541235.275130542
1197,0.0
1343,0.0
2,3, 1, 3, 0,16, 0.00,30.00,Tuesday
88,527217.75
124,0.0
236,527217.75
918,1339842.0104125562
1196,0.0
1342,0.0
2,3, 1, 3, 0,16,30.00,60.00,Tuesday
88,527217.75
124,0.0
236,527217.75
918,1376033.8974989216
1196,0.0
1342,0.0
2,3, 1, 3, 0,16, 0.00,60.00,Tuesday
89,1054435.5
125,0.0
237,1054435.5
919,2715875.9079114778
1197,0.0
1343,0.0
2,3, 1, 3, 0,17, 0.00,30.00,Tuesday
88,527217.75
124,0.0
236,527217.75
918,1386356.6172697682
1196,0.0
1342,0.0
2,3, 1, 3, 0,17,30.00,60.00,Tuesday
88,527217.75
124,0.0
236,527217.75
918,1379854.3624541169
1196,0.0
1342,0.0
2,3, 1, 3, 0,17, 0.00,60.00,Tuesday
89,1054435.5
125,0.0
237,1054435.5
919,2766210.9797238849
1197,0.0
1343,0.0
2,3, 1, 3, 0,18, 0.00,30.00,Tuesday
88,527217.75
124,0.0
236,527217.75
918,1501457.929373235
1196,0.0
1342,0.0
2,3, 1, 3, 0,18,30.00,60.00,Tuesday
88,527217.75
124,0.0
236,527217.75
918,1505175.1432477963
1196,0.0
1342,0.0
2,3, 1, 3, 0,18, 0.00,60.00,Tuesday
89,1054435.5
125,0.0
237,1054435.5
919,3006633.072621031
1197,0.0
1343,0.0
2,3, 1, 3, 0,19, 0.00,30.00,Tuesday
88,738104.85
124,210887.09999999999
236,527217.75
918,1538712.4453309458
1196,0.0
1342,0.0
2,3, 1, 3, 0,19,30.00,60.00,Tuesday
88,738104.85
124,210887.09999999999
236,527217.75
918,1539758.5988299037
1196,0.0
1342,0.0
2,3, 1, 3, 0,19, 0.00,60.00,Tuesday
89,1476209.7
125,421774.19999999998
237,1054435.5
919,3078471.0441608496
1197,0.0
1343,0.0
2,3, 1, 3, 0,20, 0.00,30.00,Tuesday
88,738104.85
124,210887.09999999999
236,527217.75
918,1669522.0390935408
1196,0.0
1342,0.0
2,3, 1, 3, 0,20,30.00,60.00,Tuesday
88,738104.85
124,210887.09999999999
236,527217.75
918,1682029.9478919255
1196,0.0
1342,0.0
2,3, 1, 3, 0,20, 0.00,60.00,Tuesday
89,1476209.7
125,421774.19999999998
237,1054435.5
919,3351551.9869854666
1197,0.0
1343,0.0
2,3, 1, 3, 0,21, 0.00,30.00,Tuesday
88,738104.85
124,210887.09999999999
236,527217.75
918,1808744.9996484644
1196,0.0
1342,0.0
2,3, 1, 3, 0,21,30.00,60.00,Tuesday
88,738104.85
124,210887.09999999999
236,527217.75
918,1817913.6145082149
1196,0.0
1342,0.0
2,3, 1, 3, 0,21, 0.00,60.00,Tuesday
89,1476209.7
125,421774.19999999998
237,1054435.5
919,3626658.6141566794
1197,0.0
1343,0.0
2,3, 1, 3, 0,22, 0.00,30.00,Tuesday
88,738104.85
124,210887.09999999999
236,527217.75
918,1830953.4644135517
1196,0.0
1342,0.0
2,3, 1, 3, 0,22,30.00,60.00,Tuesday
88,738104.85
124,210887.09999999999
236,527217.75
918,1844256.5430776475
1196,0.0
1342,0.0
2,3, 1, 3, 0,22, 0.00,60.00,Tuesday
89,1476209.7
125,421774.19999999998
237,1054435.5
919,3675210.0074911995
1197,0.0
1343,0.0
2,3, 1, 3, 0,23, 0.00,30.00,Tuesday
88,210887.09999999999
124,210887.09999999999
236,0.0
918,1675247.0352388304
1196,0.0
1342,0.0
2,3, 1, 3, 0,23,30.00,60.00,Tuesday
88,210887.09999999999
124,210887.09999999999
236,0.0
918,1680324.9715047535
1196,0.0
1342,0.0
2,3, 1, 3, 0,23, 0.00,60.00,Tuesday
89,421774.19999999998
125,421774.19999999998
237,0.0
919,3355572.006743584
1197,0.0
1343,0.0
2,3, 1, 3, 0,24, 0.00,30.00,Tuesday
88,0.0
124,0.0
236,0.0
918,1541464.257061096
1196,0.0
1342,0.0
2,3, 1, 3, 0,24,30.00,60.00,Tuesday
88,0.0
124,0.0
236,0.0
918,1552918.1150520866
1196,0.0
1342,0.0
2,3, 1, 3, 0,24, 0.00,60.00,Tuesday
89,0.0
125,0.0
237,0.0
919,3094382.372113182
1197,0.0
1343,0.0
3,3, 1, 3, 0,Tuesday
90,15816532.499999997,0.0, 1,30,738104.85,19,30
126,2108871.0000000006,0.0, 1,30,210887.09999999999,19,30
238,13707661.5,0.0, 1,30,527217.75,10,30
920,74713155.31109226,1170413.2799280638,13,60,1925563.679164853, 9,30
1198,0.0,0.0, 1,30,0.0, 1,30
1344,0.0,0.0, 1,30,0.0, 1,30
2,4, 1, 4, 0, 1, 0.00,30.00,Wednesday
88,0.0
124,0.0
236,0.0
918,1473502.157281331
1196,0.0
1342,0.0
2,4, 1, 4, 0, 1,30.00,60.00,Wednesday
88,0.0
124,0.0
236,0.0
918,1484374.281123357
1196,0.0
1342,0.0
2,4, 1, 4, 0, 1, 0.00,60.00,Wednesday
89,0.0
125,0.0
237,0.0
919,2957876.4384046879
1197,0.0
1343,0.0
2,4, 1, 4, 0, 2, 0.00,30.00,Wednesday
88,0.0
124,0.0
236,0.0
918,1509490.506610185
1196,0.0
1342,0.0
2,4, 1, 4, 0, 2,30.00,60.00,Wednesday
88,0.0
124,0.0
236,0.0
918,1505485.9288717169
1196,0.0
1342,0.0
2,4, 1, 4, 0, 2, 0.00,60.00,Wednesday
89,0.0
125,0.0
237,0.0
919,3014976.4354819019
1197,0.0
1343,0.0
2,4, 1, 4, 0, 3, 0.00,30.00,Wednesday
88,0.0
124,0.0
236,0.0
918,1525267.8130931515
1196,0.0
1342,0.0
2,4, 1, 4, 0, 3,30.00,60.00,Wednesday
88,0.0
124,0.0
236,0.0
918,1545362.5722336923
1196,0.0
1342,0.0
2,4, 1, 4, 0, 3, 0.00,60.00,Wednesday
89,0.0
125,0.0
237,0.0
919,3070630.3853268439
1197,0.0
1343,0.0
2,4, 1, 4, 0, 4, 0.00,30.00,Wednesday
88,0.0
124,0.0
236,0.0
918,1568692.5602918752
1196,0.0
1342,0.0
2,4, 1, 4, 0, 4,30.00,60.00,Wednesday
88,0.0
124,0.0
236,0.0
918,1592022.381015777
1196,0.0
1342,0.0
2,4, 1, 4, 0, 4, 0.00,60.00,Wednesday
89,0.0
125,0.0
237,0.0
919,3160714.941307652
1197,0.0
1343,0.0
2,4, 1, 4, 0, 5, 0.00,30.00,Wednesday
88,0.0
124,0.0
236,0.0
918,1612058.6021972039
1196,0.0
1342,0.0
2,4, 1, 4, 0, 5,30.00,60.00,Wednesday
88,0.0
124,0.0
236,0.0
918,1632214.3729655699
1196,0.0
1342,0.0
2,4, 1, 4, 0, 5, 0.00,60.00,Wednesday
89,0.0
125,0.0
237,0.0
919,3244272.9751627736
1197,0.0
1343,0.0
2,4, 1, 4, 0, 6, 0.00,30.00,Wednesday
88,0.0
124,0.0
236,0.0
918,1649222.0499472214
1196,0.0
1342,0.0
2,4, 1, 4, 0, 6,30.00,60.00,Wednesday
88,0.0
124,0.0
236,0.0
918,1666348.7572862616
1196,0.0
1342,0.0
2,4, 1, 4, 0, 6, 0.00,60.00,Wednesday
89,0.0
125,0.0
237,0.0
919,3315570.8072334828
1197,0.0
1343,0.0
2,4, 1, 4, 0, 7, 0.00,30.00,Wednesday
88,0.0
124,0.0
236,0.0
918,1686915.9418915939
1196,0.0
1342,0.0
2,4, 1, 4, 0, 7,30.00,60.00,Wednesday
88,0.0
124,0.0
236,0.0
918,1707511.4505839893
1196,0.0
1342,0.0
2,4, 1, 4, 0, 7, 0.00,60.00,Wednesday
89,0.0
125,0.0
237,0.0
919,3394427.392475583
1197,0.0
1343,0.0
2,4, 1, 4, 0, 8, 0.00,30.00,Wednesday
88,0.0
124,0.0
236,0.0
918,1924970.6673731404
1196,0.0
1342,0.0
2,4, 1, 4, 0, 8,30.00,60.00,Wednesday
88,0.0
124,0.0
236,0.0
918,1906895.5618531835
1196,0.0
1342,0.0
2,4, 1, 4, 0, 8, 0.00,60.00,Wednesday
89,0.0
125,0.0
237,0.0
919,3831866.229226324
1197,0.0
1343,0.0
2,4, 1, 4, 0, 9, 0.00,30.00,Wednesday
88,0.0
124,0.0
236,0.0
918,2124133.3736777987
1196,0.0
1342,0.0
2,4, 1, 4, 0, 9,30.00,60.00,Wednesday
88,0.0