Program Version,EnergyPlus, Version 9.0.1-bb7ca4f0da, YMD=2020.12.06 13:55
1,5,Environment Title[],Latitude[deg],Longitude[deg],Time Zone[],Elevation[m]
2,8,Day of Simulation[],Month[],Day of Month[],DST Indicator[1=yes 0=no],Hour[],StartMinute[],EndMinute[],DayType
3,5,Cumulative Day of Simulation[],Month[],Day of Month[],DST Indicator[1=yes 0=no],DayType  ! When Daily Meters Requested
4,2,Cumulative Days of Simulation[],Month[]  ! When Monthly Meters Requested
5,1,Cumulative Days of Simulation[] ! When Run Period Meters Requested
6,1,Calendar Year of Simulation[] ! When Annual Meters Requested
88,1,Electricity:Facility [J] !TimeStep
236,1,InteriorEquipment:Electricity [J] !TimeStep
124,1,InteriorLights:Electricity [J] !TimeStep
89,1,Electricity:Facility [J] !Hourly
237,1,InteriorEquipment:Electricity [J] !Hourly
125,1,InteriorLights:Electricity [J] !Hourly
90,7,Electricity:Facility [J] !Daily [Value,Min,Hour,Minute,Max,Hour,Minute]
238,7,InteriorEquipment:Electricity [J] !Daily [Value,Min,Hour,Minute,Max,Hour,Minute]
126,7,InteriorLights:Electricity [J] !Daily [Value,Min,Hour,Minute,Max,Hour,Minute]
91,9,Electricity:Facility [J] !Monthly [Value,Min,Day,Hour,Minute,Max,Day,Hour,Minute]
239,9,InteriorEquipment:Electricity [J] !Monthly [Value,Min,Day,Hour,Minute,Max,Day,Hour,Minute]
127,9,InteriorLights:Electricity [J] !Monthly [Value,Min,Day,Hour,Minute,Max,Day,Hour,Minute]
93,11,Electricity:Facility [J] !RunPeriod [Value,Min,Month,Day,Hour,Minute,Max,Month,Day,Hour,Minute]
241,11,InteriorEquipment:Electricity [J] !RunPeriod [Value,Min,Month,Day,Hour,Minute,Max,Month,Day,Hour,Minute]
129,11,InteriorLights:Electricity [J] !RunPeriod [Value,Min,Month,Day,Hour,Minute,Max,Month,Day,Hour,Minute]
1197,1,DistrictCooling:Facility [J] !Hourly
919,1,DistrictHeating:Facility [J] !Hourly
1343,1,Carbon Equivalent:Facility [kg] !Hourly
1198,7,DistrictCooling:Facility [J] !Daily [Value,Min,Hour,Minute,Max,Hour,Minute]
920,7,DistrictHeating:Facility [J] !Daily [Value,Min,Hour,Minute,Max,Hour,Minute]
1344,7,Carbon Equivalent:Facility [kg] !Daily [Value,Min,Hour,Minute,Max,Hour,Minute]
1199,9,DistrictCooling:Facility [J] !Monthly [Value,Min,Day,Hour,Minute,Max,Day,Hour,Minute]
921,9,DistrictHeating:Facility [J] !Monthly [Value,Min,Day,Hour,Minute,Max,Day,Hour,Minute]
1345,9,Carbon Equivalent:Facility [kg] !Monthly [Value,Min,Day,Hour,Minute,Max,Day,Hour,Minute]
1201,11,DistrictCooling:Facility [J] !RunPeriod [Value,Min,Month,Day,Hour,Minute,Max,Month,Day,Hour,Minute]
923,11,DistrictHeating:Facility [J] !RunPeriod [Value,Min,Month,Day,Hour,Minute,Max,Month,Day,Hour,Minute]
1347,11,Carbon Equivalent:Facility [kg] !RunPeriod [Value,Min,Month,Day,Hour,Minute,Max,Month,Day,Hour,Minute]
1196,1,DistrictCooling:Facility [J] !TimeStep
918,1,DistrictHeating:Facility [J] !TimeStep
1342,1,Carbon Equivalent:Facility [kg] !TimeStep
End of Data Dictionary
1,GINEVRARESIDENCE (O1-O1:31-12),  41.98, -87.92,  -6.00, 201.00
2,1, 1, 1, 0, 1, 0.00,30.00,Sunday
88,0.0
124,0.0
236,0.0
918,3795577.495467783
1196,0.0
1342,0.0
2,1, 1, 1, 0, 1,30.00,60.00,Sunday
88,0.0
124,0.0
236,0.0
918,4474055.713775447
1196,0.0
1342,0.0
2,1, 1, 1, 0, 1, 0.00,60.00,Sunday
89,0.0
125,0.0
237,0.0
919,8269633.20924323
1197,0.0
1343,0.0
2,1, 1, 1, 0, 2, 0.00,30.00,Sunday
88,0.0
124,0.0
236,0.0
918,4448222.337816585
1196,0.0
1342,0.0
2,1, 1, 1, 0, 2,30.00,60.00,Sunday
88,0.0
124,0.0
236,0.0
918,4428803.5429418
1196,0.0
1342,0.0
2,1, 1, 1, 0, 2, 0.00,60.00,Sunday
89,0.0
125,0.0
237,0.0
919,8877025.880758387
1197,0.0
1343,0.0
2,1, 1, 1, 0, 3, 0.00,30.00,Sunday
88,0.0
124,0.0
236,0.0
918,4392290.63209263
1196,0.0
1342,0.0
2,1, 1, 1, 0, 3,30.00,60.00,Sunday
88,0.0
124,0.0
236,0.0
918,4355060.890802527
1196,0.0
1342,0.0
2,1, 1, 1, 0, 3, 0.00,60.00,Sunday
89,0.0
125,0.0
237,0.0
919,8747351.522895158
1197,0.0
1343,0.0
2,1, 1, 1, 0, 4, 0.00,30.00,Sunday
88,0.0
124,0.0
236,0.0
918,4380447.015108818
1196,0.0
1342,0.0
2,1, 1, 1, 0, 4,30.00,60.00,Sunday
88,0.0
124,0.0
236,0.0
918,4404934.730023904
1196,0.0
1342,0.0
2,1, 1, 1, 0, 4, 0.00,60.00,Sunday
89,0.0
125,0.0
237,0.0
919,8785381.745132722
1197,0.0
1343,0.0
2,1, 1, 1, 0, 5, 0.00,30.00,Sunday
88,0.0
124,0.0
236,0.0
918,4386631.921477618
1196,0.0
1342,0.0
2,1, 1, 1, 0, 5,30.00,60.00,Sunday
88,0.0
124,0.0
236,0.0
918,4368485.810133625
1196,0.0
1342,0.0
2,1, 1, 1, 0, 5, 0.00,60.00,Sunday
89,0.0
125,0.0
237,0.0
919,8755117.731611243
1197,0.0
1343,0.0
2,1, 1, 1, 0, 6, 0.00,30.00,Sunday
88,0.0
124,0.0
236,0.0
918,4382231.621635868
1196,0.0
1342,0.0
2,1, 1, 1, 0, 6,30.00,60.00,Sunday
88,0.0
124,0.0
236,0.0
918,4396131.8006457709
1196,0.0
1342,0.0
2,1, 1, 1, 0, 6, 0.00,60.00,Sunday
89,0.0
125,0.0
237,0.0
919,8778363.422281638
1197,0.0
1343,0.0
2,1, 1, 1, 0, 7, 0.00,30.00,Sunday
88,0.0
124,0.0
236,0.0
918,4420398.954305155
1196,0.0
1342,0.0
2,1, 1, 1, 0, 7,30.00,60.00,Sunday
88,0.0
124,0.0
236,0.0
918,4446037.145124495
1196,0.0
1342,0.0
2,1, 1, 1, 0, 7, 0.00,60.00,Sunday
89,0.0
125,0.0
237,0.0
919,8866436.09942965
1197,0.0
1343,0.0
2,1, 1, 1, 0, 8, 0.00,30.00,Sunday
88,0.0
124,0.0
236,0.0
918,4392407.264041474
1196,0.0
1342,0.0
2,1, 1, 1, 0, 8,30.00,60.00,Sunday
88,0.0
124,0.0
236,0.0
918,4208963.161502118
1196,0.0
1342,0.0
2,1, 1, 1, 0, 8, 0.00,60.00,Sunday
89,0.0
125,0.0
237,0.0
919,8601370.425543592
1197,0.0
1343,0.0
2,1, 1, 1, 0, 9, 0.00,30.00,Sunday
88,0.0
124,0.0
236,0.0
918,4031839.005040645
1196,0.0
1342,0.0
2,1, 1, 1, 0, 9,30.00,60.00,Sunday
88,0.0
124,0.0
236,0.0
918,3901233.9028250176
1196,0.0
1342,0.0
2,1, 1, 1, 0, 9, 0.00,60.00,Sunday
89,0.0
125,0.0
237,0.0
919,7933072.907865662
1197,0.0
1343,0.0
2,1, 1, 1, 0,10, 0.00,30.00,Sunday
88,527217.75
124,0.0
236,527217.75
918,4328618.904825104
1196,0.0
1342,0.0
2,1, 1, 1, 0,10,30.00,60.00,Sunday
88,527217.75
124,0.0
236,527217.75
918,4164396.0007143195
1196,0.0
1342,0.0
2,1, 1, 1, 0,10, 0.00,60.00,Sunday
89,1054435.5
125,0.0
237,1054435.5
919,8493014.905539424
1197,0.0
1343,0.0
2,1, 1, 1, 0,11, 0.00,30.00,Sunday
88,527217.75
124,0.0
236,527217.75
918,4021267.6091855105
1196,0.0
1342,0.0
2,1, 1, 1, 0,11,30.00,60.00,Sunday
88,527217.75
124,0.0
236,527217.75
918,3903852.7993283357
1196,0.0
1342,0.0
2,1, 1, 1, 0,11, 0.00,60.00,Sunday
89,1054435.5
125,0.0
237,1054435.5
919,7925120.408513846
1197,0.0
1343,0.0
2,1, 1, 1, 0,12, 0.00,30.00,Sunday
88,527217.75
124,0.0
236,527217.75
918,3792099.367390489
1196,0.0
1342,0.0
2,1, 1, 1, 0,12,30.00,60.00,Sunday
88,527217.75
124,0.0
236,527217.75
918,3681490.5888216269
1196,0.0
1342,0.0
2,1, 1, 1, 0,12, 0.00,60.00,Sunday
89,1054435.5
125,0.0
237,1054435.5
919,7473589.956212116
1197,0.0
1343,0.0
2,1, 1, 1, 0,13, 0.00,30.00,Sunday
88,527217.75
124,0.0
236,527217.75
918,3579779.8987662198
1196,0.0
1342,0.0
2,1, 1, 1, 0,13,30.00,60.00,Sunday
88,527217.75
124,0.0
236,527217.75
918,3474747.5271539178
1196,0.0
1342,0.0
2,1, 1, 1, 0,13, 0.00,60.00,Sunday
89,1054435.5
125,0.0
237,1054435.5
919,7054527.425920137
1197,0.0
1343,0.0
2,1, 1, 1, 0,14, 0.00,30.00,Sunday
88,527217.75
124,0.0
236,527217.75
918,3380381.7176121047
1196,0.0
1342,0.0
2,1, 1, 1, 0,14,30.00,60.00,Sunday
88,527217.75
124,0.0
236,527217.75
918,3296908.479577664
1196,0.0
1342,0.0
2,1, 1, 1, 0,14, 0.00,60.00,Sunday
89,1054435.5
125,0.0
237,1054435.5
919,6677290.197189769
1197,0.0
1343,0.0
2,1, 1, 1, 0,15, 0.00,30.00,Sunday
88,527217.75
124,0.0
236,527217.75
918,3283201.844604918
1196,0.0
1342,0.0
2,1, 1, 1, 0,15,30.00,60.00,Sunday
88,527217.75
124,0.0
236,527217.75
918,3289265.806619705
1196,0.0
1342,0.0
2,1, 1, 1, 0,15, 0.00,60.00,Sunday
89,1054435.5
125,0.0
237,1054435.5
919,6572467.6512246229
1197,0.0
1343,0.0
2,1, 1, 1, 0,16, 0.00,30.00,Sunday
88,527217.75
124,0.0
236,527217.75
918,3303767.344260222
1196,0.0
1342,0.0
2,1, 1, 1, 0,16,30.00,60.00,Sunday
88,527217.75
124,0.0
236,527217.75
918,3311748.870150498
1196,0.0
1342,0.0
2,1, 1, 1, 0,16, 0.00,60.00,Sunday
89,1054435.5
125,0.0
237,1054435.5
919,6615516.21441072
1197,0.0
1343,0.0
2,1, 1, 1, 0,17, 0.00,30.00,Sunday
88,527217.75
124,0.0
236,527217.75
918,3342394.465006219
1196,0.0
1342,0.0
2,1, 1, 1, 0,17,30.00,60.00,Sunday
88,527217.75
124,0.0
236,527217.75
918,3352895.163543259
1196,0.0
1342,0.0
2,1, 1, 1, 0,17, 0.00,60.00,Sunday
89,1054435.5
125,0.0
237,1054435.5
919,6695289.628549478
1197,0.0
1343,0.0
2,1, 1, 1, 0,18, 0.00,30.00,Sunday
88,527217.75
124,0.0
236,527217.75
918,3414301.9500119055
1196,0.0
1342,0.0
2,1, 1, 1, 0,18,30.00,60.00,Sunday
88,527217.75
124,0.0
236,527217.75
918,3470839.5987620886
1196,0.0
1342,0.0
2,1, 1, 1, 0,18, 0.00,60.00,Sunday
89,1054435.5
125,0.0
237,1054435.5
919,6885141.548773994
1197,0.0
1343,0.0
2,1, 1, 1, 0,19, 0.00,30.00,Sunday
88,738104.85
124,210887.09999999999
236,527217.75
918,3454082.2971728586
1196,0.0
1342,0.0
2,1, 1, 1, 0,19,30.00,60.00,Sunday
88,738104.85
124,210887.09999999999
236,527217.75
918,3529273.8592401419
1196,0.0
1342,0.0
2,1, 1, 1, 0,19, 0.00,60.00,Sunday
89,1476209.7
125,421774.19999999998
237,1054435.5
919,6983356.156413
1197,0.0
1343,0.0
2,1, 1, 1, 0,20, 0.00,30.00,Sunday
88,738104.85
124,210887.09999999999
236,527217.75
918,3477200.37062918
1196,0.0
1342,0.0
2,1, 1, 1, 0,20,30.00,60.00,Sunday
88,738104.85
124,210887.09999999999
236,527217.75
918,3425450.4308457688
1196,0.0
1342,0.0
2,1, 1, 1, 0,20, 0.00,60.00,Sunday
89,1476209.7
125,421774.19999999998
237,1054435.5
919,6902650.801474949
1197,0.0
1343,0.0
2,1, 1, 1, 0,21, 0.00,30.00,Sunday
88,738104.85
124,210887.09999999999
236,527217.75
918,3431101.6779164348
1196,0.0
1342,0.0
2,1, 1, 1, 0,21,30.00,60.00,Sunday
88,738104.85
124,210887.09999999999
236,527217.75
918,3441332.3774968388
1196,0.0
1342,0.0
2,1, 1, 1, 0,21, 0.00,60.00,Sunday
89,1476209.7
125,421774.19999999998
237,1054435.5
919,6872434.055413273
1197,0.0
1343,0.0
2,1, 1, 1, 0,22, 0.00,30.00,Sunday
88,738104.85
124,210887.09999999999
236,527217.75
918,2977655.5533515077
1196,0.0
1342,0.0
2,1, 1, 1, 0,22,30.00,60.00,Sunday
88,738104.85
124,210887.09999999999
236,527217.75
918,2987912.6761676708
1196,0.0
1342,0.0
2,1, 1, 1, 0,22, 0.00,60.00,Sunday
89,1476209.7
125,421774.19999999998
237,1054435.5
919,5965568.229519178
1197,0.0
1343,0.0
2,1, 1, 1, 0,23, 0.00,30.00,Sunday
88,210887.09999999999
124,210887.09999999999
236,0.0
918,2952144.492412582
1196,0.0
1342,0.0
2,1, 1, 1, 0,23,30.00,60.00,Sunday
88,210887.09999999999
124,210887.09999999999
236,0.0
918,3011365.2604078629
1196,0.0
1342,0.0
2,1, 1, 1, 0,23, 0.00,60.00,Sunday
89,421774.19999999998
125,421774.19999999998
237,0.0
919,5963509.752820445
1197,0.0
1343,0.0
2,1, 1, 1, 0,24, 0.00,30.00,Sunday
88,0.0
124,0.0
236,0.0
918,3117631.0180797448
1196,0.0
1342,0.0
2,1, 1, 1, 0,24,30.00,60.00,Sunday
88,0.0
124,0.0
236,0.0
918,3138813.130325432
1196,0.0
1342,0.0
2,1, 1, 1, 0,24, 0.00,60.00,Sunday
89,0.0
125,0.0
237,0.0
919,6256444.148405177
1197,0.0
1343,0.0
3,1, 1, 1, 0,Sunday
90,15816532.499999997,0.0, 1,30,738104.85,19,30
126,2108871.0000000006,0.0, 1,30,210887.09999999999,19,30
238,13707661.5,0.0, 1,30,527217.75,10,30
920,180949674.02514143,2952144.492412582,23,30,4474055.713775447, 1,60
1198,0.0,0.0, 1,30,0.0, 1,30
1344,0.0,0.0, 1,30,0.0, 1,30
2,2, 1, 2, 0, 1, 0.00,30.00,Monday
88,0.0
124,0.0
236,0.0
918,3279490.833573534
1196,0.0
1342,0.0
2,2, 1, 2, 0, 1,30.00,60.00,Monday
88,0.0
124,0.0
236,0.0
918,3418243.966985592
1196,0.0
1342,0.0
2,2, 1, 2, 0, 1, 0.00,60.00,Monday
89,0.0
125,0.0
237,0.0
919,6697734.800559126
1197,0.0
1343,0.0
2,2, 1, 2, 0, 2, 0.00,30.00,Monday
88,0.0
124,0.0
236,0.0
918,3379071.792906548
1196,0.0
1342,0.0
2,2, 1, 2, 0, 2,30.00,60.00,Monday
88,0.0
124,0.0
236,0.0
918,3337580.216569965
1196,0.0
1342,0.0
2,2, 1, 2, 0, 2, 0.00,60.00,Monday
89,0.0
125,0.0
237,0.0
919,6716652.009476513
1197,0.0
1343,0.0
2,2, 1, 2, 0, 3, 0.00,30.00,Monday
88,0.0
124,0.0
236,0.0
918,3373759.127203823
1196,0.0
1342,0.0
2,2, 1, 2, 0, 3,30.00,60.00,Monday
88,0.0
124,0.0
236,0.0
918,3408137.952022725
1196,0.0
1342,0.0
2,2, 1, 2, 0, 3, 0.00,60.00,Monday
89,0.0
125,0.0
237,0.0
919,6781897.079226548
1197,0.0
1343,0.0
2,2, 1, 2, 0, 4, 0.00,30.00,Monday
88,0.0
124,0.0
236,0.0
918,3377477.176278344
1196,0.0
1342,0.0
2,2, 1, 2, 0, 4,30.00,60.00,Monday
88,0.0
124,0.0
236,0.0
918,3344809.0784848837
1196,0.0
1342,0.0
2,2, 1, 2, 0, 4, 0.00,60.00,Monday
89,0.0
125,0.0
237,0.0
919,6722286.254763227
1197,0.0
1343,0.0
2,2, 1, 2, 0, 5, 0.00,30.00,Monday
88,0.0
124,0.0
236,0.0
918,3268100.798980684
1196,0.0
1342,0.0
2,2, 1, 2, 0, 5,30.00,60.00,Monday
88,0.0
124,0.0
236,0.0
918,3190220.257608223
1196,0.0
1342,0.0
2,2, 1, 2, 0, 5, 0.00,60.00,Monday
89,0.0
125,0.0
237,0.0
919,6458321.056588907
1197,0.0
1343,0.0
2,2, 1, 2, 0, 6, 0.00,30.00,Monday
88,0.0
124,0.0
236,0.0
918,3191350.809381455
1196,0.0
1342,0.0
2,2, 1, 2, 0, 6,30.00,60.00,Monday
88,0.0
124,0.0
236,0.0
918,3194579.390175773
1196,0.0
1342,0.0
2,2, 1, 2, 0, 6, 0.00,60.00,Monday
89,0.0
125,0.0
237,0.0
919,6385930.199557228
1197,0.0
1343,0.0
2,2, 1, 2, 0, 7, 0.00,30.00,Monday
88,0.0
124,0.0
236,0.0
918,3159214.0620057547
1196,0.0
1342,0.0
2,2, 1, 2, 0, 7,30.00,60.00,Monday
88,0.0
124,0.0
236,0.0
918,3123008.2895598805
1196,0.0
1342,0.0
2,2, 1, 2, 0, 7, 0.00,60.00,Monday
89,0.0
125,0.0
237,0.0
919,6282222.351565635
1197,0.0
1343,0.0
2,2, 1, 2, 0, 8, 0.00,30.00,Monday
88,0.0
124,0.0
236,0.0
918,3359147.8445384579
1196,0.0
1342,0.0
2,2, 1, 2, 0, 8,30.00,60.00,Monday
88,0.0
124,0.0
236,0.0
918,3344069.6296688646
1196,0.0
1342,0.0
2,2, 1, 2, 0, 8, 0.00,60.00,Monday
89,0.0
125,0.0
237,0.0
919,6703217.474207322
1197,0.0
1343,0.0
2,2, 1, 2, 0, 9, 0.00,30.00,Monday
88,0.0
124,0.0
236,0.0
918,3539285.188612325
1196,0.0
1342,0.0
2,2, 1, 2, 0, 9,30.00,60.00,Monday
88,0.0
124,0.0
236,0.0
918,3475324.072881302
1196,0.0
1342,0.0
2,2, 1, 2, 0, 9, 0.00,60.00,Monday
89,0.0
125,0.0
237,0.0
919,7014609.261493627
1197,0.0
1343,0.0
2,2, 1, 2, 0,10, 0.00,30.00,Monday
88,527217.75
124,0.0
236,527217.75
918,3237576.8047278167
1196,0.0
1342,0.0
2,2, 1, 2, 0,10,30.00,60.00,Monday
88,527217.75
124,0.0
236,527217.75
918,3166863.940737992
1196,0.0
1342,0.0
2,2, 1, 2, 0,10, 0.00,60.00,Monday
89,1054435.5
125,0.0
237,1054435.5
919,6404440.745465809
1197,0.0
1343,0.0
2,2, 1, 2, 0,11, 0.00,30.00,Monday
88,527217.75
124,0.0
236,527217.75
918,2837461.8751382019
1196,0.0
1342,0.0
2,2, 1, 2, 0,11,30.00,60.00,Monday
88,527217.75
124,0.0
236,527217.75
918,2730977.0230382906
1196,0.0
1342,0.0
2,2, 1, 2, 0,11, 0.00,60.00,Monday
89,1054435.5
125,0.0
237,1054435.5
919,5568438.898176492
1197,0.0
1343,0.0
2,2, 1, 2, 0,12, 0.00,30.00,Monday
88,527217.75
124,0.0
236,527217.75
918,2671656.6137523849
1196,0.0
1342,0.0
2,2, 1, 2, 0,12,30.00,60.00,Monday
88,527217.75
124,0.0
236,527217.75
918,2621339.8748009048
1196,0.0
1342,0.0
2,2, 1, 2, 0,12, 0.00,60.00,Monday
89,1054435.5
125,0.0
237,1054435.5
919,5292996.488553289
1197,0.0
1343,0.0
2,2, 1, 2, 0,13, 0.00,30.00,Monday
88,527217.75
124,0.0
236,527217.75
918,2553457.158970421
1196,0.0
1342,0.0
2,2, 1, 2, 0,13,30.00,60.00,Monday
88,527217.75
124,0.0
236,527217.75
918,2503169.5779265349
1196,0.0
1342,0.0
2,2, 1, 2, 0,13, 0.00,60.00,Monday
89,1054435.5
125,0.0
237,1054435.5
919,5056626.736896956
1197,0.0
1343,0.0
2,2, 1, 2, 0,14, 0.00,30.00,Monday
88,527217.75
124,0.0
236,527217.75
918,2616383.539567534
1196,0.0
1342,0.0
2,2, 1, 2, 0,14,30.00,60.00,Monday
88,527217.75
124,0.0
236,527217.75
918,2747356.4758172344
1196,0.0
1342,0.0
2,2, 1, 2, 0,14, 0.00,60.00,Monday
89,1054435.5
125,0.0
237,1054435.5
919,5363740.015384768
1197,0.0
1343,0.0
2,2, 1, 2, 0,15, 0.00,30.00,Monday
88,527217.75
124,0.0
236,527217.75
918,2773978.5102139499
1196,0.0
1342,0.0
2,2, 1, 2, 0,15,30.00,60.00,Monday
88,527217.75
124,0.0
236,527217.75
918,2819345.2626855086
1196,0.0
1342,0.0
2,2, 1, 2, 0,15, 0.00,60.00,Monday
89,1054435.5
125,0.0
237,1054435.5
919,5593323.772899458
1197,0.0
1343,0.0
2,2, 1, 2, 0,16, 0.00,30.00,Monday
88,527217.75
124,0.0
236,527217.75
918,2792245.5733907048
1196,0.0
1342,0.0
2,2, 1, 2, 0,16,30.00,60.00,Monday
88,527217.75
124,0.0
236,527217.75
918,2757402.899522436
1196,0.0
1342,0.0
2,2, 1, 2, 0,16, 0.00,60.00,Monday
89,1054435.5
125,0.0
237,1054435.5
919,5549648.47291314
1197,0.0
1343,0.0
2,2, 1, 2, 0,17, 0.00,30.00,Monday
88,527217.75
124,0.0
236,527217.75
918,2835109.1666095575
1196,0.0
1342,0.0
2,2, 1, 2, 0,17,30.00,60.00,Monday
88,527217.75
124,0.0
236,527217.75
918,2896969.497115569
1196,0.0
1342,0.0
2,2, 1, 2, 0,17, 0.00,60.00,Monday
89,1054435.5
125,0.0
237,1054435.5
919,5732078.6637251269
1197,0.0
1343,0.0
2,2, 1, 2, 0,18, 0.00,30.00,Monday
88,527217.75
124,0.0
236,527217.75
918,3067447.5954003438
1196,0.0
1342,0.0
2,2, 1, 2, 0,18,30.00,60.00,Monday
88,527217.75
124,0.0
236,527217.75
918,3114404.9456472138
1196,0.0
1342,0.0
2,2, 1, 2, 0,18, 0.00,60.00,Monday
89,1054435.5
125,0.0
237,1054435.5
919,6181852.541047557
1197,0.0
1343,0.0
2,2, 1, 2, 0,19, 0.00,30.00,Monday
88,738104.85
124,210887.09999999999
236,527217.75
918,3082855.1533352837
1196,0.0
1342,0.0
2,2, 1, 2, 0,19,30.00,60.00,Monday
88,738104.85
124,210887.09999999999
236,527217.75
918,3016206.914808071
1196,0.0
1342,0.0
2,2, 1, 2, 0,19, 0.00,60.00,Monday
89,1476209.7
125,421774.19999999998
237,1054435.5
919,6099062.068143355
1197,0.0
1343,0.0
2,2, 1, 2, 0,20, 0.00,30.00,Monday
88,738104.85
124,210887.09999999999
236,527217.75
918,3107686.7948687125
1196,0.0
1342,0.0
2,2, 1, 2, 0,20,30.00,60.00,Monday
88,738104.85
124,210887.09999999999
236,527217.75
918,3081227.672211321
1196,0.0
1342,0.0
2,2, 1, 2, 0,20, 0.00,60.00,Monday
89,1476209.7
125,421774.19999999998
237,1054435.5
919,6188914.467080033
1197,0.0
1343,0.0
2,2, 1, 2, 0,21, 0.00,30.00,Monday
88,738104.85
124,210887.09999999999
236,527217.75
918,3168897.992658482
1196,0.0
1342,0.0
2,2, 1, 2, 0,21,30.00,60.00,Monday
88,738104.85
124,210887.09999999999
236,527217.75
918,3138341.0888218267
1196,0.0
1342,0.0
2,2, 1, 2, 0,21, 0.00,60.00,Monday
89,1476209.7
125,421774.19999999998
237,1054435.5
919,6307239.081480308
1197,0.0
1343,0.0
2,2, 1, 2, 0,22, 0.00,30.00,Monday
88,738104.85
124,210887.09999999999
236,527217.75
918,3102469.2136890178
1196,0.0
1342,0.0
2,2, 1, 2, 0,22,30.00,60.00,Monday
88,738104.85
124,210887.09999999999
236,527217.75
918,3066073.5211866127
1196,0.0
1342,0.0
2,2, 1, 2, 0,22, 0.00,60.00,Monday
89,1476209.7
125,421774.19999999998
237,1054435.5
919,6168542.734875631
1197,0.0
1343,0.0
2,2, 1, 2, 0,23, 0.00,30.00,Monday
88,210887.09999999999
124,210887.09999999999
236,0.0
918,2967807.9475962987
1196,0.0
1342,0.0
2,2, 1, 2, 0,23,30.00,60.00,Monday
88,210887.09999999999
124,210887.09999999999
236,0.0
918,3060703.208763016
1196,0.0
1342,0.0
2,2, 1, 2, 0,23, 0.00,60.00,Monday
89,421774.19999999998
125,421774.19999999998
237,0.0
919,6028511.156359315
1197,0.0
1343,0.0
2,2, 1, 2, 0,24, 0.00,30.00,Monday
88,0.0
124,0.0
236,0.0
918,2952174.843015503
1196,0.0
1342,0.0
2,2, 1, 2, 0,24,30.00,60.00,Monday
88,0.0
124,0.0
236,0.0
918,2998592.1144270848
1196,0.0
1342,0.0
2,2, 1, 2, 0,24, 0.00,60.00,Monday
89,0.0
125,0.0
237,0.0
919,5950766.957442587
1197,0.0
1343,0.0
3,2, 1, 2, 0,Monday
90,15816532.499999997,0.0, 1,30,738104.85,19,30
126,2108871.0000000006,0.0, 1,30,210887.09999999999,19,30
238,13707661.5,0.0, 1,30,527217.75,10,30
920,147249053.28788195,2503169.5779265349,13,60,3539285.188612325, 9,30
1198,0.0,0.0, 1,30,0.0, 1,30
1344,0.0,0.0, 1,30,0.0, 1,30
2,3, 1, 3, 0, 1, 0.00,30.00,Tuesday
88,0.0
124,0.0
236,0.0
918,2890916.894367395
1196,0.0
1342,0.0
2,3, 1, 3, 0, 1,30.00,60.00,Tuesday
88,0.0
124,0.0
236,0.0
918,2900324.938512598
1196,0.0
1342,0.0
2,3, 1, 3, 0, 1, 0.00,60.00,Tuesday
89,0.0
125,0.0
237,0.0
919,5791241.832879993
1197,0.0
1343,0.0
2,3, 1, 3, 0, 2, 0.00,30.00,Tuesday
88,0.0
124,0.0
236,0.0
918,2933655.4896995325
1196,0.0
1342,0.0
2,3, 1, 3, 0, 2,30.00,60.00,Tuesday
88,0.0
124,0.0
236,0.0
918,2963201.835404195
1196,0.0
1342,0.0
2,3, 1, 3, 0, 2, 0.00,60.00,Tuesday
89,0.0
125,0.0
237,0.0
919,5896857.325103727
1197,0.0
1343,0.0
2,3, 1, 3, 0, 3, 0.00,30.00,Tuesday
88,0.0
124,0.0
236,0.0
918,2957549.4824749508
1196,0.0
1342,0.0
2,3, 1, 3, 0, 3,30.00,60.00,Tuesday
88,0.0
124,0.0
236,0.0
918,2947691.0752874168
1196,0.0
1342,0.0
2,3, 1, 3, 0, 3, 0.00,60.00,Tuesday
89,0.0
125,0.0
237,0.0
919,5905240.557762368
1197,0.0
1343,0.0
2,3, 1, 3, 0, 4, 0.00,30.00,Tuesday
88,0.0
124,0.0
236,0.0
918,2986657.0511899155
1196,0.0
1342,0.0
2,3, 1, 3, 0, 4,30.00,60.00,Tuesday
88,0.0
124,0.0
236,0.0
918,3025090.7184792936
1196,0.0
1342,0.0
2,3, 1, 3, 0, 4, 0.00,60.00,Tuesday
89,0.0
125,0.0
237,0.0
919,6011747.769669209
1197,0.0
1343,0.0
2,3, 1, 3, 0, 5, 0.00,30.00,Tuesday
88,0.0
124,0.0
236,0.0
918,3098260.9185317696
1196,0.0
1342,0.0
2,3, 1, 3, 0, 5,30.00,60.00,Tuesday
88,0.0
124,0.0
236,0.0
918,3171292.4570643214
1196,0.0
1342,0.0
2,3, 1, 3, 0, 5, 0.00,60.00,Tuesday
89,0.0
125,0.0
237,0.0
919,6269553.375596091
1197,0.0
1343,0.0
2,3, 1, 3, 0, 6, 0.00,30.00,Tuesday
88,0.0
124,0.0
236,0.0
918,3253105.9000812547
1196,0.0
1342,0.0
2,3, 1, 3, 0, 6,30.00,60.00,Tuesday
88,0.0
124,0.0
236,0.0
918,3335653.220060167
1196,0.0
1342,0.0
2,3, 1, 3, 0, 6, 0.00,60.00,Tuesday
89,0.0
125,0.0
237,0.0
919,6588759.120141421
1197,0.0
1343,0.0
2,3, 1, 3, 0, 7, 0.00,30.00,Tuesday
88,0.0
124,0.0
236,0.0
918,3404488.1278716118
1196,0.0
1342,0.0
2,3, 1, 3, 0, 7,30.00,60.00,Tuesday
88,0.0
124,0.0
236,0.0
918,3472781.795558348
1196,0.0
1342,0.0
2,3, 1, 3, 0, 7, 0.00,60.00,Tuesday
89,0.0
125,0.0
237,0.0
919,6877269.923429959
1197,0.0
1343,0.0
2,3, 1, 3, 0, 8, 0.00,30.00,Tuesday
88,0.0
124,0.0
236,0.0
918,3680925.957101335
1196,0.0
1342,0.0
2,3, 1, 3, 0, 8,30.00,60.00,Tuesday
88,0.0
124,0.0
236,0.0
918,3633580.7397619045
1196,0.0
1342,0.0
2,3, 1, 3, 0, 8, 0.00,60.00,Tuesday
89,0.0
125,0.0
237,0.0
919,7314506.69686324
1197,0.0
1343,0.0
2,3, 1, 3, 0, 9, 0.00,30.00,Tuesday
88,0.0
124,0.0
236,0.0
918,3911592.514661584
1196,0.0
1342,0.0
2,3, 1, 3, 0, 9,30.00,60.00,Tuesday
88,0.0
124,0.0
236,0.0
918,3935761.0263875455
1196,0.0
1342,0.0
2,3, 1, 3, 0, 9, 0.00,60.00,Tuesday
89,0.0
125,0.0
237,0.0
919,7847353.541049129
1197,0.0
1343,0.0
2,3, 1, 3, 0,10, 0.00,30.00,Tuesday
88,527217.75
124,0.0
236,527217.75
918,3755281.8041867099
1196,0.0
1342,0.0
2,3, 1, 3, 0,10,30.00,60.00,Tuesday
88,527217.75
124,0.0
236,527217.75
918,3708137.4148726908
1196,0.0
1342,0.0
2,3, 1, 3, 0,10, 0.00,60.00,Tuesday
89,1054435.5
125,0.0
237,1054435.5
919,7463419.2190594
1197,0.0
1343,0.0
2,3, 1, 3, 0,11, 0.00,30.00,Tuesday
88,527217.75
124,0.0
236,527217.75
918,3383681.722175997
1196,0.0
1342,0.0
2,3, 1, 3, 0,11,30.00,60.00,Tuesday
88,527217.75
124,0.0
236,527217.75
918,3311007.6745093187
1196,0.0
1342,0.0
2,3, 1, 3, 0,11, 0.00,60.00,Tuesday
89,1054435.5
125,0.0
237,1054435.5
919,6694689.396685315
1197,0.0
1343,0.0
2,3, 1, 3, 0,12, 0.00,30.00,Tuesday
88,527217.75
124,0.0
236,527217.75
918,3238647.466832143
1196,0.0
1342,0.0
2,3, 1, 3, 0,12,30.00,60.00,Tuesday
88,527217.75
124,0.0
236,527217.75
918,3170880.6967030565
1196,0.0
1342,0.0
2,3, 1, 3, 0,12, 0.00,60.00,Tuesday
89,1054435.5
125,0.0
237,1054435.5
919,6409528.163535199
1197,0.0
1343,0.0
2,3, 1, 3, 0,13, 0.00,30.00,Tuesday
88,527217.75
124,0.0
236,527217.75
918,3105401.404730448
1196,0.0
1342,0.0
2,3, 1, 3, 0,13,30.00,60.00,Tuesday
88,527217.75
124,0.0
236,527217.75
918,3040796.5245505527
1196,0.0
1342,0.0
2,3, 1, 3, 0,13, 0.00,60.00,Tuesday
89,1054435.5
125,0.0
237,1054435.5
919,6146197.929281
1197,0.0
1343,0.0
2,3, 1, 3, 0,14, 0.00,30.00,Tuesday
88,527217.75
124,0.0
236,527217.75
918,3031152.5059467714
1196,0.0
1342,0.0
2,3, 1, 3, 0,14,30.00,60.00,Tuesday
88,527217.75
124,0.0
236,527217.75
918,3038805.871378592
1196,0.0
1342,0.0
2,3, 1, 3, 0,14, 0.00,60.00,Tuesday
89,1054435.5
125,0.0
237,1054435.5
919,6069958.377325363
1197,0.0
1343,0.0
2,3, 1, 3, 0,15, 0.00,30.00,Tuesday
88,527217.75
124,0.0
236,527217.75
918,3003701.217046855
1196,0.0
1342,0.0
2,3, 1, 3, 0,15,30.00,60.00,Tuesday
88,527217.75
124,0.0
236,527217.75
918,2975086.273110118
1196,0.0
1342,0.0
2,3, 1, 3, 0,15, 0.00,60.00,Tuesday
89,1054435.5
125,0.0
237,1054435.5
919,5978787.490156973
1197,0.0
1343,0.0
2,3, 1, 3, 0,16, 0.00,30.00,Tuesday
88,527217.75
124,0.0
236,527217.75
918,2986499.611346159
1196,0.0
1342,0.0
2,3, 1, 3, 0,16,30.00,60.00,Tuesday
88,527217.75
124,0.0
236,527217.75
918,2997855.4705921497
1196,0.0
1342,0.0
2,3, 1, 3, 0,16, 0.00,60.00,Tuesday
89,1054435.5
125,0.0
237,1054435.5
919,5984355.081938309
1197,0.0
1343,0.0
2,3, 1, 3, 0,17, 0.00,30.00,Tuesday
88,527217.75
124,0.0
236,527217.75
918,3094156.5063179556
1196,0.0
1342,0.0
2,3, 1, 3, 0,17,30.00,60.00,Tuesday
88,527217.75
124,0.0
236,527217.75
918,3145442.0251755008
1196,0.0
1342,0.0
2,3, 1, 3, 0,17, 0.00,60.00,Tuesday
89,1054435.5
125,0.0
237,1054435.5
919,6239598.531493456
1197,0.0
1343,0.0
2,3, 1, 3, 0,18, 0.00,30.00,Tuesday
88,527217.75
124,0.0
236,527217.75
918,3283121.8111180646
1196,0.0
1342,0.0
2,3, 1, 3, 0,18,30.00,60.00,Tuesday
88,527217.75
124,0.0
236,527217.75
918,3298530.4115209279
1196,0.0
1342,0.0
2,3, 1, 3, 0,18, 0.00,60.00,Tuesday
89,1054435.5
125,0.0
237,1054435.5
919,6581652.222638993
1197,0.0
1343,0.0
2,3, 1, 3, 0,19, 0.00,30.00,Tuesday
88,738104.85
124,210887.09999999999
236,527217.75
918,3351842.4875424278
1196,0.0
1342,0.0
2,3, 1, 3, 0,19,30.00,60.00,Tuesday
88,738104.85
124,210887.09999999999
236,527217.75
918,3370428.6686857559
1196,0.0
1342,0.0
2,3, 1, 3, 0,19, 0.00,60.00,Tuesday
89,1476209.7
125,421774.19999999998
237,1054435.5
919,6722271.156228183
1197,0.0
1343,0.0
2,3, 1, 3, 0,20, 0.00,30.00,Tuesday
88,738104.85
124,210887.09999999999
236,527217.75
918,3493956.6476651437
1196,0.0
1342,0.0
2,3, 1, 3, 0,20,30.00,60.00,Tuesday
88,738104.85
124,210887.09999999999
236,527217.75
918,3498324.597859266
1196,0.0
1342,0.0
2,3, 1, 3, 0,20, 0.00,60.00,Tuesday
89,1476209.7
125,421774.19999999998
237,1054435.5
919,6992281.24552441
1197,0.0
1343,0.0
2,3, 1, 3, 0,21, 0.00,30.00,Tuesday
88,738104.85
124,210887.09999999999
236,527217.75
918,3621724.900246406
1196,0.0
1342,0.0
2,3, 1, 3, 0,21,30.00,60.00,Tuesday
88,738104.85
124,210887.09999999999
236,527217.75
918,3630190.7592518648
1196,0.0
1342,0.0
2,3, 1, 3, 0,21, 0.00,60.00,Tuesday
89,1476209.7
125,421774.19999999998
237,1054435.5
919,7251915.659498271
1197,0.0
1343,0.0
2,3, 1, 3, 0,22, 0.00,30.00,Tuesday
88,738104.85
124,210887.09999999999
236,527217.75
918,3664721.7665331449
1196,0.0
1342,0.0
2,3, 1, 3, 0,22,30.00,60.00,Tuesday
88,738104.85
124,210887.09999999999
236,527217.75
918,3697022.00613722
1196,0.0
1342,0.0
2,3, 1, 3, 0,22, 0.00,60.00,Tuesday
89,1476209.7
125,421774.19999999998
237,1054435.5
919,7361743.772670365
1197,0.0
1343,0.0
2,3, 1, 3, 0,23, 0.00,30.00,Tuesday
88,210887.09999999999
124,210887.09999999999
236,0.0
918,3498461.984260102
1196,0.0
1342,0.0
2,3, 1, 3, 0,23,30.00,60.00,Tuesday
88,210887.09999999999
124,210887.09999999999
236,0.0
918,3520777.5206437569
1196,0.0
1342,0.0
2,3, 1, 3, 0,23, 0.00,60.00,Tuesday
89,421774.19999999998
125,421774.19999999998
237,0.0
919,7019239.5049038589
1197,0.0
1343,0.0
2,3, 1, 3, 0,24, 0.00,30.00,Tuesday
88,0.0
124,0.0
236,0.0
918,3382514.2357842267
1196,0.0
1342,0.0
2,3, 1, 3, 0,24,30.00,60.00,Tuesday
88,0.0
124,0.0
236,0.0
918,3387628.3426599765
1196,0.0
1342,0.0
2,3, 1, 3, 0,24, 0.00,60.00,Tuesday
89,0.0
125,0.0
237,0.0
919,6770142.578444203
1197,0.0
1343,0.0
3,3, 1, 3, 0,Tuesday
90,15816532.499999997,0.0, 1,30,738104.85,19,30
126,2108871.0000000006,0.0, 1,30,210887.09999999999,19,30
238,13707661.5,0.0, 1,30,527217.75,10,30
920,158188310.47187848,2890916.894367395, 1,30,3935761.0263875455, 9,60
1198,0.0,0.0, 1,30,0.0, 1,30
1344,0.0,0.0, 1,30,0.0, 1,30
2,4, 1, 4, 0, 1, 0.00,30.00,Wednesday
88,0.0
124,0.0
236,0.0
918,3283147.162048952
1196,0.0
1342,0.0
2,4, 1, 4, 0, 1,30.00,60.00,Wednesday
88,0.0
124,0.0
236,0.0
918,3301120.3434912657
1196,0.0
1342,0.0
2,4, 1, 4, 0, 1, 0.00,60.00,Wednesday
89,0.0
125,0.0
237,0.0
919,6584267.505540218
1197,0.0
1343,0.0
2,4, 1, 4, 0, 2, 0.00,30.00,Wednesday
88,0.0
124,0.0
236,0.0
918,3319859.1995095855
1196,0.0
1342,0.0
2,4, 1, 4, 0, 2,30.00,60.00,Wednesday
88,0.0
124,0.0
236,0.0
918,3342199.983939348
1196,0.0
1342,0.0
2,4, 1, 4, 0, 2, 0.00,60.00,Wednesday
89,0.0
125,0.0
237,0.0
919,6662059.183448933
1197,0.0
1343,0.0
2,4, 1, 4, 0, 3, 0.00,30.00,Wednesday
88,0.0
124,0.0
236,0.0
918,3359073.608189401
1196,0.0
1342,0.0
2,4, 1, 4, 0, 3,30.00,60.00,Wednesday
88,0.0
124,0.0
236,0.0
918,3386423.943435924
1196,0.0
1342,0.0
2,4, 1, 4, 0, 3, 0.00,60.00,Wednesday
89,0.0
125,0.0
237,0.0
919,6745497.551625325
1197,0.0
1343,0.0
2,4, 1, 4, 0, 4, 0.00,30.00,Wednesday
88,0.0
124,0.0
236,0.0
918,3423268.3583607638
1196,0.0
1342,0.0
2,4, 1, 4, 0, 4,30.00,60.00,Wednesday
88,0.0
124,0.0
236,0.0
918,3459001.746756396
1196,0.0
1342,0.0
2,4, 1, 4, 0, 4, 0.00,60.00,Wednesday
89,0.0
125,0.0
237,0.0
919,6882270.105117159
1197,0.0
1343,0.0
2,4, 1, 4, 0, 5, 0.00,30.00,Wednesday
88,0.0
124,0.0
236,0.0
918,3463522.000390506
1196,0.0
1342,0.0
2,4, 1, 4, 0, 5,30.00,60.00,Wednesday
88,0.0
124,0.0
236,0.0
918,3466603.70954217
1196,0.0
1342,0.0
2,4, 1, 4, 0, 5, 0.00,60.00,Wednesday
89,0.0
125,0.0
237,0.0
919,6930125.709932676
1197,0.0
1343,0.0
2,4, 1, 4, 0, 6, 0.00,30.00,Wednesday
88,0.0
124,0.0
236,0.0
918,3461704.213158003
1196,0.0
1342,0.0
2,4, 1, 4, 0, 6,30.00,60.00,Wednesday
88,0.0
124,0.0
236,0.0
918,3463697.993667772
1196,0.0
1342,0.0
2,4, 1, 4, 0, 6, 0.00,60.00,Wednesday
89,0.0
125,0.0
237,0.0
919,6925402.206825775
1197,0.0
1343,0.0
2,4, 1, 4, 0, 7, 0.00,30.00,Wednesday
88,0.0
124,0.0
236,0.0
918,3440599.766213349
1196,0.0
1342,0.0
2,4, 1, 4, 0, 7,30.00,60.00,Wednesday
88,0.0
124,0.0
236,0.0
918,3417328.669722537
1196,0.0
1342,0.0
2,4, 1, 4, 0, 7, 0.00,60.00,Wednesday
89,0.0
125,0.0
237,0.0
919,6857928.435935887
1197,0.0
1343,0.0
2,4, 1, 4, 0, 8, 0.00,30.00,Wednesday
88,0.0
124,0.0
236,0.0
918,3639999.5595238117
1196,0.0
1342,0.0
2,4, 1, 4, 0, 8,30.00,60.00,Wednesday
88,0.0
124,0.0
236,0.0
918,3610031.6174543618
1196,0.0
1342,0.0
2,4, 1, 4, 0, 8, 0.00,60.00,Wednesday
89,0.0
125,0.0
237,0.0
919,7250031.176978173
1197,0.0
1343,0.0
2,4, 1, 4, 0, 9, 0.00,30.00,Wednesday
88,0.0
124,0.0
236,0.0
918,3776153.945648245
1196,0.0
1342,0.0
2,4, 1, 4, 0, 9,30.00,60.00,Wednesday
88,0.0
124,0.0
236,0.0
918,3704021.2992301324
1196,0.0
1342,0.0