Program Version,EnergyPlus, Version 9.0.1-bb7ca4f0da, YMD=2020.12.31 21:44
1,5,Environment Title[],Latitude[deg],Longitude[deg],Time Zone[],Elevation[m]
2,8,Day of Simulation[],Month[],Day of Month[],DST Indicator[1=yes 0=no],Hour[],StartMinute[],EndMinute[],DayType
3,5,Cumulative Day of Simulation[],Month[],Day of Month[],DST Indicator[1=yes 0=no],DayType  ! When Daily Meters Requested
4,2,Cumulative Days of Simulation[],Month[]  ! When Monthly Meters Requested
5,1,Cumulative Days of Simulation[] ! When Run Period Meters Requested
6,1,Calendar Year of Simulation[] ! When Annual Meters Requested
88,1,Electricity:Facility [J] !TimeStep
236,1,InteriorEquipment:Electricity [J] !TimeStep
124,1,InteriorLights:Electricity [J] !TimeStep
89,1,Electricity:Facility [J] !Hourly
237,1,InteriorEquipment:Electricity [J] !Hourly
125,1,InteriorLights:Electricity [J] !Hourly
90,7,Electricity:Facility [J] !Daily [Value,Min,Hour,Minute,Max,Hour,Minute]
238,7,InteriorEquipment:Electricity [J] !Daily [Value,Min,Hour,Minute,Max,Hour,Minute]
126,7,InteriorLights:Electricity [J] !Daily [Value,Min,Hour,Minute,Max,Hour,Minute]
91,9,Electricity:Facility [J] !Monthly [Value,Min,Day,Hour,Minute,Max,Day,Hour,Minute]
239,9,InteriorEquipment:Electricity [J] !Monthly [Value,Min,Day,Hour,Minute,Max,Day,Hour,Minute]
127,9,InteriorLights:Electricity [J] !Monthly [Value,Min,Day,Hour,Minute,Max,Day,Hour,Minute]
93,11,Electricity:Facility [J] !RunPeriod [Value,Min,Month,Day,Hour,Minute,Max,Month,Day,Hour,Minute]
241,11,InteriorEquipment:Electricity [J] !RunPeriod [Value,Min,Month,Day,Hour,Minute,Max,Month,Day,Hour,Minute]
129,11,InteriorLights:Electricity [J] !RunPeriod [Value,Min,Month,Day,Hour,Minute,Max,Month,Day,Hour,Minute]
1197,1,DistrictCooling:Facility [J] !Hourly
919,1,DistrictHeating:Facility [J] !Hourly
1343,1,Carbon Equivalent:Facility [kg] !Hourly
1198,7,DistrictCooling:Facility [J] !Daily [Value,Min,Hour,Minute,Max,Hour,Minute]
920,7,DistrictHeating:Facility [J] !Daily [Value,Min,Hour,Minute,Max,Hour,Minute]
1344,7,Carbon Equivalent:Facility [kg] !Daily [Value,Min,Hour,Minute,Max,Hour,Minute]
1199,9,DistrictCooling:Facility [J] !Monthly [Value,Min,Day,Hour,Minute,Max,Day,Hour,Minute]
921,9,DistrictHeating:Facility [J] !Monthly [Value,Min,Day,Hour,Minute,Max,Day,Hour,Minute]
1345,9,Carbon Equivalent:Facility [kg] !Monthly [Value,Min,Day,Hour,Minute,Max,Day,Hour,Minute]
1201,11,DistrictCooling:Facility [J] !RunPeriod [Value,Min,Month,Day,Hour,Minute,Max,Month,Day,Hour,Minute]
923,11,DistrictHeating:Facility [J] !RunPeriod [Value,Min,Month,Day,Hour,Minute,Max,Month,Day,Hour,Minute]
1347,11,Carbon Equivalent:Facility [kg] !RunPeriod [Value,Min,Month,Day,Hour,Minute,Max,Month,Day,Hour,Minute]
1196,1,DistrictCooling:Facility [J] !TimeStep
918,1,DistrictHeating:Facility [J] !TimeStep
1342,1,Carbon Equivalent:Facility [kg] !TimeStep
End of Data Dictionary
1,GINEVRARESIDENCE (O1-O1:31-12),  46.25,   6.13,   1.00, 416.00
2,1, 1, 1, 0, 1, 0.00,30.00,Sunday
88,0.0
124,0.0
236,0.0
918,1074324.2866563444
1196,0.0
1342,0.0
2,1, 1, 1, 0, 1,30.00,60.00,Sunday
88,0.0
124,0.0
236,0.0
918,1032708.1092665915
1196,0.0
1342,0.0
2,1, 1, 1, 0, 1, 0.00,60.00,Sunday
89,0.0
125,0.0
237,0.0
919,2107032.3959229358
1197,0.0
1343,0.0
2,1, 1, 1, 0, 2, 0.00,30.00,Sunday
88,0.0
124,0.0
236,0.0
918,991608.5613667262
1196,0.0
1342,0.0
2,1, 1, 1, 0, 2,30.00,60.00,Sunday
88,0.0
124,0.0
236,0.0
918,950505.8174216931
1196,0.0
1342,0.0
2,1, 1, 1, 0, 2, 0.00,60.00,Sunday
89,0.0
125,0.0
237,0.0
919,1942114.3787884194
1197,0.0
1343,0.0
2,1, 1, 1, 0, 3, 0.00,30.00,Sunday
88,0.0
124,0.0
236,0.0
918,955282.4644819365
1196,0.0
1342,0.0
2,1, 1, 1, 0, 3,30.00,60.00,Sunday
88,0.0
124,0.0
236,0.0
918,959861.1210794502
1196,0.0
1342,0.0
2,1, 1, 1, 0, 3, 0.00,60.00,Sunday
89,0.0
125,0.0
237,0.0
919,1915143.5855613868
1197,0.0
1343,0.0
2,1, 1, 1, 0, 4, 0.00,30.00,Sunday
88,0.0
124,0.0
236,0.0
918,970100.7958655304
1196,0.0
1342,0.0
2,1, 1, 1, 0, 4,30.00,60.00,Sunday
88,0.0
124,0.0
236,0.0
918,980282.2943769983
1196,0.0
1342,0.0
2,1, 1, 1, 0, 4, 0.00,60.00,Sunday
89,0.0
125,0.0
237,0.0
919,1950383.0902425289
1197,0.0
1343,0.0
2,1, 1, 1, 0, 5, 0.00,30.00,Sunday
88,0.0
124,0.0
236,0.0
918,979499.4305012217
1196,0.0
1342,0.0
2,1, 1, 1, 0, 5,30.00,60.00,Sunday
88,0.0
124,0.0
236,0.0
918,978693.6297605523
1196,0.0
1342,0.0
2,1, 1, 1, 0, 5, 0.00,60.00,Sunday
89,0.0
125,0.0
237,0.0
919,1958193.0602617739
1197,0.0
1343,0.0
2,1, 1, 1, 0, 6, 0.00,30.00,Sunday
88,0.0
124,0.0
236,0.0
918,981741.2037892299
1196,0.0
1342,0.0
2,1, 1, 1, 0, 6,30.00,60.00,Sunday
88,0.0
124,0.0
236,0.0
918,984731.6331532442
1196,0.0
1342,0.0
2,1, 1, 1, 0, 6, 0.00,60.00,Sunday
89,0.0
125,0.0
237,0.0
919,1966472.836942474
1197,0.0
1343,0.0
2,1, 1, 1, 0, 7, 0.00,30.00,Sunday
88,0.0
124,0.0
236,0.0
918,987137.0367376139
1196,0.0
1342,0.0
2,1, 1, 1, 0, 7,30.00,60.00,Sunday
88,0.0
124,0.0
236,0.0
918,989443.810761089
1196,0.0
1342,0.0
2,1, 1, 1, 0, 7, 0.00,60.00,Sunday
89,0.0
125,0.0
237,0.0
919,1976580.8474987029
1197,0.0
1343,0.0
2,1, 1, 1, 0, 8, 0.00,30.00,Sunday
88,0.0
124,0.0
236,0.0
918,992574.5651874892
1196,0.0
1342,0.0
2,1, 1, 1, 0, 8,30.00,60.00,Sunday
88,0.0
124,0.0
236,0.0
918,995698.9807482561
1196,0.0
1342,0.0
2,1, 1, 1, 0, 8, 0.00,60.00,Sunday
89,0.0
125,0.0
237,0.0
919,1988273.5459357454
1197,0.0
1343,0.0
2,1, 1, 1, 0, 9, 0.00,30.00,Sunday
88,0.0
124,0.0
236,0.0
918,999245.723736987
1196,0.0
1342,0.0
2,1, 1, 1, 0, 9,30.00,60.00,Sunday
88,0.0
124,0.0
236,0.0
918,1002424.2694346521
1196,0.0
1342,0.0
2,1, 1, 1, 0, 9, 0.00,60.00,Sunday
89,0.0
125,0.0
237,0.0
919,2001669.993171639
1197,0.0
1343,0.0
2,1, 1, 1, 0,10, 0.00,30.00,Sunday
88,452306.25
124,0.0
236,452306.25
918,1458544.4521639352
1196,0.0
1342,0.0
2,1, 1, 1, 0,10,30.00,60.00,Sunday
88,452306.25
124,0.0
236,452306.25
918,1465862.4880838635
1196,0.0
1342,0.0
2,1, 1, 1, 0,10, 0.00,60.00,Sunday
89,904612.5
125,0.0
237,904612.5
919,2924406.9402477985
1197,0.0
1343,0.0
2,1, 1, 1, 0,11, 0.00,30.00,Sunday
88,452306.25
124,0.0
236,452306.25
918,1464088.9251118636
1196,0.0
1342,0.0
2,1, 1, 1, 0,11,30.00,60.00,Sunday
88,452306.25
124,0.0
236,452306.25
918,1462370.5903391767
1196,0.0
1342,0.0
2,1, 1, 1, 0,11, 0.00,60.00,Sunday
89,904612.5
125,0.0
237,904612.5
919,2926459.51545104
1197,0.0
1343,0.0
2,1, 1, 1, 0,12, 0.00,30.00,Sunday
88,452306.25
124,0.0
236,452306.25
918,1455580.5557829475
1196,0.0
1342,0.0
2,1, 1, 1, 0,12,30.00,60.00,Sunday
88,452306.25
124,0.0
236,452306.25
918,1449100.3068576107
1196,0.0
1342,0.0
2,1, 1, 1, 0,12, 0.00,60.00,Sunday
89,904612.5
125,0.0
237,904612.5
919,2904680.862640558
1197,0.0
1343,0.0
2,1, 1, 1, 0,13, 0.00,30.00,Sunday
88,452306.25
124,0.0
236,452306.25
918,1445747.8227038698
1196,0.0
1342,0.0
2,1, 1, 1, 0,13,30.00,60.00,Sunday
88,452306.25
124,0.0
236,452306.25
918,1442191.7565252803
1196,0.0
1342,0.0
2,1, 1, 1, 0,13, 0.00,60.00,Sunday
89,904612.5
125,0.0
237,904612.5
919,2887939.57922915
1197,0.0
1343,0.0
2,1, 1, 1, 0,14, 0.00,30.00,Sunday
88,452306.25
124,0.0
236,452306.25
918,1441232.1390856626
1196,0.0
1342,0.0
2,1, 1, 1, 0,14,30.00,60.00,Sunday
88,452306.25
124,0.0
236,452306.25
918,1440274.0675564134
1196,0.0
1342,0.0
2,1, 1, 1, 0,14, 0.00,60.00,Sunday
89,904612.5
125,0.0
237,904612.5
919,2881506.206642076
1197,0.0
1343,0.0
2,1, 1, 1, 0,15, 0.00,30.00,Sunday
88,452306.25
124,0.0
236,452306.25
918,1435340.3745362743
1196,0.0
1342,0.0
2,1, 1, 1, 0,15,30.00,60.00,Sunday
88,452306.25
124,0.0
236,452306.25
918,1430417.5119488242
1196,0.0
1342,0.0
2,1, 1, 1, 0,15, 0.00,60.00,Sunday
89,904612.5
125,0.0
237,904612.5
919,2865757.8864850986
1197,0.0
1343,0.0
2,1, 1, 1, 0,16, 0.00,30.00,Sunday
88,452306.25
124,0.0
236,452306.25
918,1429846.3718878776
1196,0.0
1342,0.0
2,1, 1, 1, 0,16,30.00,60.00,Sunday
88,452306.25
124,0.0
236,452306.25
918,1429381.0106398175
1196,0.0
1342,0.0
2,1, 1, 1, 0,16, 0.00,60.00,Sunday
89,904612.5
125,0.0
237,904612.5
919,2859227.382527695
1197,0.0
1343,0.0
2,1, 1, 1, 0,17, 0.00,30.00,Sunday
88,452306.25
124,0.0
236,452306.25
918,1434321.2054078524
1196,0.0
1342,0.0
2,1, 1, 1, 0,17,30.00,60.00,Sunday
88,452306.25
124,0.0
236,452306.25
918,1439186.677860719
1196,0.0
1342,0.0
2,1, 1, 1, 0,17, 0.00,60.00,Sunday
89,904612.5
125,0.0
237,904612.5
919,2873507.8832685716
1197,0.0
1343,0.0
2,1, 1, 1, 0,18, 0.00,30.00,Sunday
88,452306.25
124,0.0
236,452306.25
918,1445401.5086126743
1196,0.0
1342,0.0
2,1, 1, 1, 0,18,30.00,60.00,Sunday
88,452306.25
124,0.0
236,452306.25
918,1451575.2485873062
1196,0.0
1342,0.0
2,1, 1, 1, 0,18, 0.00,60.00,Sunday
89,904612.5
125,0.0
237,904612.5
919,2896976.7571999805
1197,0.0
1343,0.0
2,1, 1, 1, 0,19, 0.00,30.00,Sunday
88,633228.75
124,180922.5
236,452306.25
918,1383456.7575039305
1196,0.0
1342,0.0
2,1, 1, 1, 0,19,30.00,60.00,Sunday
88,633228.75
124,180922.5
236,452306.25
918,1388145.2326798123
1196,0.0
1342,0.0
2,1, 1, 1, 0,19, 0.00,60.00,Sunday
89,1266457.5
125,361845.0
237,904612.5
919,2771601.9901837429
1197,0.0
1343,0.0
2,1, 1, 1, 0,20, 0.00,30.00,Sunday
88,633228.75
124,180922.5
236,452306.25
918,1393453.2412368525
1196,0.0
1342,0.0
2,1, 1, 1, 0,20,30.00,60.00,Sunday
88,633228.75
124,180922.5
236,452306.25
918,1399048.4101697244
1196,0.0
1342,0.0
2,1, 1, 1, 0,20, 0.00,60.00,Sunday
89,1266457.5
125,361845.0
237,904612.5
919,2792501.651406577
1197,0.0
1343,0.0
2,1, 1, 1, 0,21, 0.00,30.00,Sunday
88,633228.75
124,180922.5
236,452306.25
918,1404969.569087502
1196,0.0
1342,0.0
2,1, 1, 1, 0,21,30.00,60.00,Sunday
88,633228.75
124,180922.5
236,452306.25
918,1411036.524779766
1196,0.0
1342,0.0
2,1, 1, 1, 0,21, 0.00,60.00,Sunday
89,1266457.5
125,361845.0
237,904612.5
919,2816006.0938672686
1197,0.0
1343,0.0
2,1, 1, 1, 0,22, 0.00,30.00,Sunday
88,633228.75
124,180922.5
236,452306.25
918,1012751.9643603799
1196,0.0
1342,0.0
2,1, 1, 1, 0,22,30.00,60.00,Sunday
88,633228.75
124,180922.5
236,452306.25
918,1018926.2278112932
1196,0.0
1342,0.0
2,1, 1, 1, 0,22, 0.00,60.00,Sunday
89,1266457.5
125,361845.0
237,904612.5
919,2031678.192171673
1197,0.0
1343,0.0
2,1, 1, 1, 0,23, 0.00,30.00,Sunday
88,180922.5
124,180922.5
236,0.0
918,990887.4699376423
1196,0.0
1342,0.0
2,1, 1, 1, 0,23,30.00,60.00,Sunday
88,180922.5
124,180922.5
236,0.0
918,1010911.8667260099
1196,0.0
1342,0.0
2,1, 1, 1, 0,23, 0.00,60.00,Sunday
89,361845.0
125,361845.0
237,0.0
919,2001799.3366636523
1197,0.0
1343,0.0
2,1, 1, 1, 0,24, 0.00,30.00,Sunday
88,0.0
124,0.0
236,0.0
918,1103536.7318050946
1196,0.0
1342,0.0
2,1, 1, 1, 0,24,30.00,60.00,Sunday
88,0.0
124,0.0
236,0.0
918,1123454.7771004756
1196,0.0
1342,0.0
2,1, 1, 1, 0,24, 0.00,60.00,Sunday
89,0.0
125,0.0
237,0.0
919,2226991.50890557
1197,0.0
1343,0.0
3,1, 1, 1, 0,Sunday
90,13569187.5,0.0, 1,30,633228.75,19,30
126,1809225.0,0.0, 1,30,180922.5,19,30
238,11759962.5,0.0, 1,30,452306.25,10,30
920,58466905.52121606,950505.8174216931, 2,60,1465862.4880838635,10,60
1198,0.0,0.0, 1,30,0.0, 1,30
1344,0.0,0.0, 1,30,0.0, 1,30
2,2, 1, 2, 0, 1, 0.00,30.00,Monday
88,0.0
124,0.0
236,0.0
918,1117996.0007088823
1196,0.0
1342,0.0
2,2, 1, 2, 0, 1,30.00,60.00,Monday
88,0.0
124,0.0
236,0.0
918,1112282.6419862298
1196,0.0
1342,0.0
2,2, 1, 2, 0, 1, 0.00,60.00,Monday
89,0.0
125,0.0
237,0.0
919,2230278.642695112
1197,0.0
1343,0.0
2,2, 1, 2, 0, 2, 0.00,30.00,Monday
88,0.0
124,0.0
236,0.0
918,1164333.3178981676
1196,0.0
1342,0.0
2,2, 1, 2, 0, 2,30.00,60.00,Monday
88,0.0
124,0.0
236,0.0
918,1216451.2954075998
1196,0.0
1342,0.0
2,2, 1, 2, 0, 2, 0.00,60.00,Monday
89,0.0
125,0.0
237,0.0
919,2380784.613305767
1197,0.0
1343,0.0
2,2, 1, 2, 0, 3, 0.00,30.00,Monday
88,0.0
124,0.0
236,0.0
918,1272483.98357771
1196,0.0
1342,0.0
2,2, 1, 2, 0, 3,30.00,60.00,Monday
88,0.0
124,0.0
236,0.0
918,1328653.1342678499
1196,0.0
1342,0.0
2,2, 1, 2, 0, 3, 0.00,60.00,Monday
89,0.0
125,0.0
237,0.0
919,2601137.11784556
1197,0.0
1343,0.0
2,2, 1, 2, 0, 4, 0.00,30.00,Monday
88,0.0
124,0.0
236,0.0
918,1352052.648511533
1196,0.0
1342,0.0
2,2, 1, 2, 0, 4,30.00,60.00,Monday
88,0.0
124,0.0
236,0.0
918,1375477.601161167
1196,0.0
1342,0.0
2,2, 1, 2, 0, 4, 0.00,60.00,Monday
89,0.0
125,0.0
237,0.0
919,2727530.2496726999
1197,0.0
1343,0.0
2,2, 1, 2, 0, 5, 0.00,30.00,Monday
88,0.0
124,0.0
236,0.0
918,1368462.7681681193
1196,0.0
1342,0.0
2,2, 1, 2, 0, 5,30.00,60.00,Monday
88,0.0
124,0.0
236,0.0
918,1361393.468201676
1196,0.0
1342,0.0
2,2, 1, 2, 0, 5, 0.00,60.00,Monday
89,0.0
125,0.0
237,0.0
919,2729856.236369795
1197,0.0
1343,0.0
2,2, 1, 2, 0, 6, 0.00,30.00,Monday
88,0.0
124,0.0
236,0.0
918,1365459.0227654256
1196,0.0
1342,0.0
2,2, 1, 2, 0, 6,30.00,60.00,Monday
88,0.0
124,0.0
236,0.0
918,1369360.4063496064
1196,0.0
1342,0.0
2,2, 1, 2, 0, 6, 0.00,60.00,Monday
89,0.0
125,0.0
237,0.0
919,2734819.429115032
1197,0.0
1343,0.0
2,2, 1, 2, 0, 7, 0.00,30.00,Monday
88,0.0
124,0.0
236,0.0
918,1365624.828118525
1196,0.0
1342,0.0
2,2, 1, 2, 0, 7,30.00,60.00,Monday
88,0.0
124,0.0
236,0.0
918,1361888.8408414622
1196,0.0
1342,0.0
2,2, 1, 2, 0, 7, 0.00,60.00,Monday
89,0.0
125,0.0
237,0.0
919,2727513.6689599875
1197,0.0
1343,0.0
2,2, 1, 2, 0, 8, 0.00,30.00,Monday
88,0.0
124,0.0
236,0.0
918,1573661.8411665476
1196,0.0
1342,0.0
2,2, 1, 2, 0, 8,30.00,60.00,Monday
88,0.0
124,0.0
236,0.0
918,1583216.897402794
1196,0.0
1342,0.0
2,2, 1, 2, 0, 8, 0.00,60.00,Monday
89,0.0
125,0.0
237,0.0
919,3156878.7385693418
1197,0.0
1343,0.0
2,2, 1, 2, 0, 9, 0.00,30.00,Monday
88,0.0
124,0.0
236,0.0
918,1742277.4482745385
1196,0.0
1342,0.0
2,2, 1, 2, 0, 9,30.00,60.00,Monday
88,0.0
124,0.0
236,0.0
918,1698713.4486489832
1196,0.0
1342,0.0
2,2, 1, 2, 0, 9, 0.00,60.00,Monday
89,0.0
125,0.0
237,0.0
919,3440990.8969235217
1197,0.0
1343,0.0
2,2, 1, 2, 0,10, 0.00,30.00,Monday
88,452306.25
124,0.0
236,452306.25
918,1491917.6185639883
1196,0.0
1342,0.0
2,2, 1, 2, 0,10,30.00,60.00,Monday
88,452306.25
124,0.0
236,452306.25
918,1422093.9250698572
1196,0.0
1342,0.0
2,2, 1, 2, 0,10, 0.00,60.00,Monday
89,904612.5
125,0.0
237,904612.5
919,2914011.5436338458
1197,0.0
1343,0.0
2,2, 1, 2, 0,11, 0.00,30.00,Monday
88,452306.25
124,0.0
236,452306.25
918,1197984.3095825879
1196,0.0
1342,0.0
2,2, 1, 2, 0,11,30.00,60.00,Monday
88,452306.25
124,0.0
236,452306.25
918,1176171.0318448055
1196,0.0
1342,0.0
2,2, 1, 2, 0,11, 0.00,60.00,Monday
89,904612.5
125,0.0
237,904612.5
919,2374155.3414273934
1197,0.0
1343,0.0
2,2, 1, 2, 0,12, 0.00,30.00,Monday
88,452306.25
124,0.0
236,452306.25
918,1153628.258633424
1196,0.0
1342,0.0
2,2, 1, 2, 0,12,30.00,60.00,Monday
88,452306.25
124,0.0
236,452306.25
918,1131089.3674449269
1196,0.0
1342,0.0
2,2, 1, 2, 0,12, 0.00,60.00,Monday
89,904612.5
125,0.0
237,904612.5
919,2284717.626078351
1197,0.0
1343,0.0
2,2, 1, 2, 0,13, 0.00,30.00,Monday
88,452306.25
124,0.0
236,452306.25
918,1129110.5717811078
1196,0.0
1342,0.0
2,2, 1, 2, 0,13,30.00,60.00,Monday
88,452306.25
124,0.0
236,452306.25
918,1127254.7156082318
1196,0.0
1342,0.0
2,2, 1, 2, 0,13, 0.00,60.00,Monday
89,904612.5
125,0.0
237,904612.5
919,2256365.2873893396
1197,0.0
1343,0.0
2,2, 1, 2, 0,14, 0.00,30.00,Monday
88,452306.25
124,0.0
236,452306.25
918,1121786.8208544129
1196,0.0
1342,0.0
2,2, 1, 2, 0,14,30.00,60.00,Monday
88,452306.25
124,0.0
236,452306.25
918,1116418.400411507
1196,0.0
1342,0.0
2,2, 1, 2, 0,14, 0.00,60.00,Monday
89,904612.5
125,0.0
237,904612.5
919,2238205.22126592
1197,0.0
1343,0.0
2,2, 1, 2, 0,15, 0.00,30.00,Monday
88,452306.25
124,0.0
236,452306.25
918,1104987.8615449647
1196,0.0
1342,0.0
2,2, 1, 2, 0,15,30.00,60.00,Monday
88,452306.25
124,0.0
236,452306.25
918,1093681.4814706604
1196,0.0
1342,0.0
2,2, 1, 2, 0,15, 0.00,60.00,Monday
89,904612.5
125,0.0
237,904612.5
919,2198669.343015625
1197,0.0
1343,0.0
2,2, 1, 2, 0,16, 0.00,30.00,Monday
88,452306.25
124,0.0
236,452306.25
918,1103204.7425025453
1196,0.0
1342,0.0
2,2, 1, 2, 0,16,30.00,60.00,Monday
88,452306.25
124,0.0
236,452306.25
918,1112811.2583627627
1196,0.0
1342,0.0
2,2, 1, 2, 0,16, 0.00,60.00,Monday
89,904612.5
125,0.0
237,904612.5
919,2216016.0008653078
1197,0.0
1343,0.0
2,2, 1, 2, 0,17, 0.00,30.00,Monday
88,452306.25
124,0.0
236,452306.25
918,1142603.4944492237
1196,0.0
1342,0.0
2,2, 1, 2, 0,17,30.00,60.00,Monday
88,452306.25
124,0.0
236,452306.25
918,1172414.9242294026
1196,0.0
1342,0.0
2,2, 1, 2, 0,17, 0.00,60.00,Monday
89,904612.5
125,0.0
237,904612.5
919,2315018.4186786266
1197,0.0
1343,0.0
2,2, 1, 2, 0,18, 0.00,30.00,Monday
88,452306.25
124,0.0
236,452306.25
918,1302058.6802193956
1196,0.0
1342,0.0
2,2, 1, 2, 0,18,30.00,60.00,Monday
88,452306.25
124,0.0
236,452306.25
918,1330584.7397678537
1196,0.0
1342,0.0
2,2, 1, 2, 0,18, 0.00,60.00,Monday
89,904612.5
125,0.0
237,904612.5
919,2632643.419987249
1197,0.0
1343,0.0
2,2, 1, 2, 0,19, 0.00,30.00,Monday
88,633228.75
124,180922.5
236,452306.25
918,1359184.9760054905
1196,0.0
1342,0.0
2,2, 1, 2, 0,19,30.00,60.00,Monday
88,633228.75
124,180922.5
236,452306.25
918,1359482.8452676188
1196,0.0
1342,0.0
2,2, 1, 2, 0,19, 0.00,60.00,Monday
89,1266457.5
125,361845.0
237,904612.5
919,2718667.821273109
1197,0.0
1343,0.0
2,2, 1, 2, 0,20, 0.00,30.00,Monday
88,633228.75
124,180922.5
236,452306.25
918,1470136.6540694438
1196,0.0
1342,0.0
2,2, 1, 2, 0,20,30.00,60.00,Monday
88,633228.75
124,180922.5
236,452306.25
918,1480002.583244132
1196,0.0
1342,0.0
2,2, 1, 2, 0,20, 0.00,60.00,Monday
89,1266457.5
125,361845.0
237,904612.5
919,2950139.237313576
1197,0.0
1343,0.0
2,2, 1, 2, 0,21, 0.00,30.00,Monday
88,633228.75
124,180922.5
236,452306.25
918,1586206.5808490113
1196,0.0
1342,0.0
2,2, 1, 2, 0,21,30.00,60.00,Monday
88,633228.75
124,180922.5
236,452306.25
918,1591512.6841989528
1196,0.0
1342,0.0
2,2, 1, 2, 0,21, 0.00,60.00,Monday
89,1266457.5
125,361845.0
237,904612.5
919,3177719.2650479639
1197,0.0
1343,0.0
2,2, 1, 2, 0,22, 0.00,30.00,Monday
88,633228.75
124,180922.5
236,452306.25
918,1592855.9508400874
1196,0.0
1342,0.0
2,2, 1, 2, 0,22,30.00,60.00,Monday
88,633228.75
124,180922.5
236,452306.25
918,1594175.643655636
1196,0.0
1342,0.0
2,2, 1, 2, 0,22, 0.00,60.00,Monday
89,1266457.5
125,361845.0
237,904612.5
919,3187031.5944957237
1197,0.0
1343,0.0
2,2, 1, 2, 0,23, 0.00,30.00,Monday
88,180922.5
124,180922.5
236,0.0
918,1446449.552340373
1196,0.0
1342,0.0
2,2, 1, 2, 0,23,30.00,60.00,Monday
88,180922.5
124,180922.5
236,0.0
918,1458855.045093979
1196,0.0
1342,0.0
2,2, 1, 2, 0,23, 0.00,60.00,Monday
89,361845.0
125,361845.0
237,0.0
919,2905304.597434352
1197,0.0
1343,0.0
2,2, 1, 2, 0,24, 0.00,30.00,Monday
88,0.0
124,0.0
236,0.0
918,1350416.8369605123
1196,0.0
1342,0.0
2,2, 1, 2, 0,24,30.00,60.00,Monday
88,0.0
124,0.0
236,0.0
918,1371490.4299362256
1196,0.0
1342,0.0
2,2, 1, 2, 0,24, 0.00,60.00,Monday
89,0.0
125,0.0
237,0.0
919,2721907.2668967379
1197,0.0
1343,0.0
3,2, 1, 2, 0,Monday
90,13569187.5,0.0, 1,30,633228.75,19,30
126,1809225.0,0.0, 1,30,180922.5,19,30
238,11759962.5,0.0, 1,30,452306.25,10,30
920,63820361.57825993,1093681.4814706604,15,60,1742277.4482745385, 9,30
1198,0.0,0.0, 1,30,0.0, 1,30
1344,0.0,0.0, 1,30,0.0, 1,30
2,3, 1, 3, 0, 1, 0.00,30.00,Tuesday
88,0.0
124,0.0
236,0.0
918,1252826.1693586172
1196,0.0
1342,0.0
2,3, 1, 3, 0, 1,30.00,60.00,Tuesday
88,0.0
124,0.0
236,0.0
918,1234902.5360080179
1196,0.0
1342,0.0
2,3, 1, 3, 0, 1, 0.00,60.00,Tuesday
89,0.0
125,0.0
237,0.0
919,2487728.7053666349
1197,0.0
1343,0.0
2,3, 1, 3, 0, 2, 0.00,30.00,Tuesday
88,0.0
124,0.0
236,0.0
918,1241422.9198584774
1196,0.0
1342,0.0
2,3, 1, 3, 0, 2,30.00,60.00,Tuesday
88,0.0
124,0.0
236,0.0
918,1247776.652955042
1196,0.0
1342,0.0
2,3, 1, 3, 0, 2, 0.00,60.00,Tuesday
89,0.0
125,0.0
237,0.0
919,2489199.5728135195
1197,0.0
1343,0.0
2,3, 1, 3, 0, 3, 0.00,30.00,Tuesday
88,0.0
124,0.0
236,0.0
918,1258144.7082075377
1196,0.0
1342,0.0
2,3, 1, 3, 0, 3,30.00,60.00,Tuesday
88,0.0
124,0.0
236,0.0
918,1268293.0596821833
1196,0.0
1342,0.0
2,3, 1, 3, 0, 3, 0.00,60.00,Tuesday
89,0.0
125,0.0
237,0.0
919,2526437.767889721
1197,0.0
1343,0.0
2,3, 1, 3, 0, 4, 0.00,30.00,Tuesday
88,0.0
124,0.0
236,0.0
918,1277508.6492780087
1196,0.0
1342,0.0
2,3, 1, 3, 0, 4,30.00,60.00,Tuesday
88,0.0
124,0.0
236,0.0
918,1286706.8594688213
1196,0.0
1342,0.0
2,3, 1, 3, 0, 4, 0.00,60.00,Tuesday
89,0.0
125,0.0
237,0.0
919,2564215.50874683
1197,0.0
1343,0.0
2,3, 1, 3, 0, 5, 0.00,30.00,Tuesday
88,0.0
124,0.0
236,0.0
918,1298973.969294538
1196,0.0
1342,0.0
2,3, 1, 3, 0, 5,30.00,60.00,Tuesday
88,0.0
124,0.0
236,0.0
918,1311222.3525212673
1196,0.0
1342,0.0
2,3, 1, 3, 0, 5, 0.00,60.00,Tuesday
89,0.0
125,0.0
237,0.0
919,2610196.3218158057
1197,0.0
1343,0.0
2,3, 1, 3, 0, 6, 0.00,30.00,Tuesday
88,0.0
124,0.0
236,0.0
918,1317367.7536844416
1196,0.0
1342,0.0
2,3, 1, 3, 0, 6,30.00,60.00,Tuesday
88,0.0
124,0.0
236,0.0
918,1323496.188065309
1196,0.0
1342,0.0
2,3, 1, 3, 0, 6, 0.00,60.00,Tuesday
89,0.0
125,0.0
237,0.0
919,2640863.9417497508
1197,0.0
1343,0.0
2,3, 1, 3, 0, 7, 0.00,30.00,Tuesday
88,0.0
124,0.0
236,0.0
918,1322994.9494093606
1196,0.0
1342,0.0
2,3, 1, 3, 0, 7,30.00,60.00,Tuesday
88,0.0
124,0.0
236,0.0
918,1322474.6530681542
1196,0.0
1342,0.0
2,3, 1, 3, 0, 7, 0.00,60.00,Tuesday
89,0.0
125,0.0
237,0.0
919,2645469.6024775148
1197,0.0
1343,0.0
2,3, 1, 3, 0, 8, 0.00,30.00,Tuesday
88,0.0
124,0.0
236,0.0
918,1525489.5187414906
1196,0.0
1342,0.0
2,3, 1, 3, 0, 8,30.00,60.00,Tuesday
88,0.0
124,0.0
236,0.0
918,1526305.384145625
1196,0.0
1342,0.0
2,3, 1, 3, 0, 8, 0.00,60.00,Tuesday
89,0.0
125,0.0
237,0.0
919,3051794.9028871154
1197,0.0
1343,0.0
2,3, 1, 3, 0, 9, 0.00,30.00,Tuesday
88,0.0
124,0.0
236,0.0
918,1733484.8013120215
1196,0.0
1342,0.0
2,3, 1, 3, 0, 9,30.00,60.00,Tuesday
88,0.0
124,0.0
236,0.0
918,1738358.1701936559
1196,0.0
1342,0.0
2,3, 1, 3, 0, 9, 0.00,60.00,Tuesday
89,0.0
125,0.0
237,0.0
919,3471842.9715056775
1197,0.0
1343,0.0
2,3, 1, 3, 0,10, 0.00,30.00,Tuesday
88,452306.25
124,0.0
236,452306.25
918,1585524.8489082184
1196,0.0
1342,0.0
2,3, 1, 3, 0,10,30.00,60.00,Tuesday
88,452306.25
124,0.0
236,452306.25
918,1567619.675480152
1196,0.0
1342,0.0
2,3, 1, 3, 0,10, 0.00,60.00,Tuesday
89,904612.5
125,0.0
237,904612.5
919,3153144.52438837
1197,0.0
1343,0.0
2,3, 1, 3, 0,11, 0.00,30.00,Tuesday
88,452306.25
124,0.0
236,452306.25
918,1342382.6744937453
1196,0.0
1342,0.0
2,3, 1, 3, 0,11,30.00,60.00,Tuesday
88,452306.25
124,0.0
236,452306.25
918,1319463.712608438
1196,0.0
1342,0.0
2,3, 1, 3, 0,11, 0.00,60.00,Tuesday
89,904612.5
125,0.0
237,904612.5
919,2661846.387102183
1197,0.0
1343,0.0
2,3, 1, 3, 0,12, 0.00,30.00,Tuesday
88,452306.25
124,0.0
236,452306.25
918,1301598.5572664992
1196,0.0
1342,0.0
2,3, 1, 3, 0,12,30.00,60.00,Tuesday
88,452306.25
124,0.0
236,452306.25
918,1283838.1801652346
1196,0.0
1342,0.0
2,3, 1, 3, 0,12, 0.00,60.00,Tuesday
89,904612.5
125,0.0
237,904612.5
919,2585436.737431734
1197,0.0
1343,0.0
2,3, 1, 3, 0,13, 0.00,30.00,Tuesday
88,452306.25
124,0.0
236,452306.25
918,1272437.1390956944
1196,0.0
1342,0.0
2,3, 1, 3, 0,13,30.00,60.00,Tuesday
88,452306.25
124,0.0
236,452306.25
918,1258193.5128606654
1196,0.0
1342,0.0
2,3, 1, 3, 0,13, 0.00,60.00,Tuesday
89,904612.5
125,0.0
237,904612.5
919,2530630.65195636
1197,0.0
1343,0.0
2,3, 1, 3, 0,14, 0.00,30.00,Tuesday
88,452306.25
124,0.0
236,452306.25
918,1247358.9545459166
1196,0.0
1342,0.0
2,3, 1, 3, 0,14,30.00,60.00,Tuesday
88,452306.25
124,0.0
236,452306.25
918,1233458.7675549356
1196,0.0
1342,0.0
2,3, 1, 3, 0,14, 0.00,60.00,Tuesday
89,904612.5
125,0.0
237,904612.5
919,2480817.722100852
1197,0.0
1343,0.0
2,3, 1, 3, 0,15, 0.00,30.00,Tuesday
88,452306.25
124,0.0
236,452306.25
918,1231766.4366985528
1196,0.0
1342,0.0
2,3, 1, 3, 0,15,30.00,60.00,Tuesday
88,452306.25
124,0.0
236,452306.25
918,1230146.5699808347
1196,0.0
1342,0.0
2,3, 1, 3, 0,15, 0.00,60.00,Tuesday
89,904612.5
125,0.0
237,904612.5
919,2461913.0066793875
1197,0.0
1343,0.0
2,3, 1, 3, 0,16, 0.00,30.00,Tuesday
88,452306.25
124,0.0
236,452306.25
918,1240543.3941303148
1196,0.0
1342,0.0
2,3, 1, 3, 0,16,30.00,60.00,Tuesday
88,452306.25
124,0.0
236,452306.25
918,1247908.3395479462
1196,0.0
1342,0.0
2,3, 1, 3, 0,16, 0.00,60.00,Tuesday
89,904612.5
125,0.0
237,904612.5
919,2488451.733678261
1197,0.0
1343,0.0
2,3, 1, 3, 0,17, 0.00,30.00,Tuesday
88,452306.25
124,0.0
236,452306.25
918,1265100.26500418
1196,0.0
1342,0.0
2,3, 1, 3, 0,17,30.00,60.00,Tuesday
88,452306.25
124,0.0
236,452306.25
918,1278937.772308074
1196,0.0
1342,0.0
2,3, 1, 3, 0,17, 0.00,60.00,Tuesday
89,904612.5
125,0.0
237,904612.5
919,2544038.037312254
1197,0.0
1343,0.0
2,3, 1, 3, 0,18, 0.00,30.00,Tuesday
88,452306.25
124,0.0
236,452306.25
918,1397334.1376033936
1196,0.0
1342,0.0
2,3, 1, 3, 0,18,30.00,60.00,Tuesday
88,452306.25
124,0.0
236,452306.25
918,1414689.275636245
1196,0.0
1342,0.0
2,3, 1, 3, 0,18, 0.00,60.00,Tuesday
89,904612.5
125,0.0
237,904612.5
919,2812023.4132396385
1197,0.0
1343,0.0
2,3, 1, 3, 0,19, 0.00,30.00,Tuesday
88,633228.75
124,180922.5
236,452306.25
918,1450161.3675481096
1196,0.0
1342,0.0
2,3, 1, 3, 0,19,30.00,60.00,Tuesday
88,633228.75
124,180922.5
236,452306.25
918,1457404.7394726095
1196,0.0
1342,0.0
2,3, 1, 3, 0,19, 0.00,60.00,Tuesday
89,1266457.5
125,361845.0
237,904612.5
919,2907566.107020719
1197,0.0
1343,0.0
2,3, 1, 3, 0,20, 0.00,30.00,Tuesday
88,633228.75
124,180922.5
236,452306.25
918,1561490.950950674
1196,0.0
1342,0.0
2,3, 1, 3, 0,20,30.00,60.00,Tuesday
88,633228.75
124,180922.5
236,452306.25
918,1564835.2037934019
1196,0.0
1342,0.0
2,3, 1, 3, 0,20, 0.00,60.00,Tuesday
89,1266457.5
125,361845.0
237,904612.5
919,3126326.1547440758
1197,0.0
1343,0.0
2,3, 1, 3, 0,21, 0.00,30.00,Tuesday
88,633228.75
124,180922.5
236,452306.25
918,1663561.078611581
1196,0.0
1342,0.0
2,3, 1, 3, 0,21,30.00,60.00,Tuesday
88,633228.75
124,180922.5
236,452306.25
918,1661378.9240913299
1196,0.0
1342,0.0
2,3, 1, 3, 0,21, 0.00,60.00,Tuesday
89,1266457.5
125,361845.0
237,904612.5
919,3324940.0027029106
1197,0.0
1343,0.0
2,3, 1, 3, 0,22, 0.00,30.00,Tuesday
88,633228.75
124,180922.5
236,452306.25
918,1661822.2196529604
1196,0.0
1342,0.0
2,3, 1, 3, 0,22,30.00,60.00,Tuesday
88,633228.75
124,180922.5
236,452306.25
918,1662373.4337650617
1196,0.0
1342,0.0
2,3, 1, 3, 0,22, 0.00,60.00,Tuesday
89,1266457.5
125,361845.0
237,904612.5
919,3324195.653418022
1197,0.0
1343,0.0
2,3, 1, 3, 0,23, 0.00,30.00,Tuesday
88,180922.5
124,180922.5
236,0.0
918,1502164.9340053057
1196,0.0
1342,0.0
2,3, 1, 3, 0,23,30.00,60.00,Tuesday
88,180922.5
124,180922.5
236,0.0
918,1506148.767898168
1196,0.0
1342,0.0
2,3, 1, 3, 0,23, 0.00,60.00,Tuesday
89,361845.0
125,361845.0
237,0.0
919,3008313.7019034738
1197,0.0
1343,0.0
2,3, 1, 3, 0,24, 0.00,30.00,Tuesday
88,0.0
124,0.0
236,0.0
918,1376949.3920888967
1196,0.0
1342,0.0
2,3, 1, 3, 0,24,30.00,60.00,Tuesday
88,0.0
124,0.0
236,0.0
918,1377273.5800688235
1196,0.0
1342,0.0
2,3, 1, 3, 0,24, 0.00,60.00,Tuesday
89,0.0
125,0.0
237,0.0
919,2754222.97215772
1197,0.0
1343,0.0
3,3, 1, 3, 0,Tuesday
90,13569187.5,0.0, 1,30,633228.75,19,30
126,1809225.0,0.0, 1,30,180922.5,19,30
238,11759962.5,0.0, 1,30,452306.25,10,30
920,66651616.101088549,1230146.5699808347,15,60,1738358.1701936559, 9,60
1198,0.0,0.0, 1,30,0.0, 1,30
1344,0.0,0.0, 1,30,0.0, 1,30
2,4, 1, 4, 0, 1, 0.00,30.00,Wednesday
88,0.0
124,0.0
236,0.0
918,1280425.540438702
1196,0.0
1342,0.0
2,4, 1, 4, 0, 1,30.00,60.00,Wednesday
88,0.0
124,0.0
236,0.0
918,1280677.1599932556
1196,0.0
1342,0.0
2,4, 1, 4, 0, 1, 0.00,60.00,Wednesday
89,0.0
125,0.0
237,0.0
919,2561102.700431958
1197,0.0
1343,0.0
2,4, 1, 4, 0, 2, 0.00,30.00,Wednesday
88,0.0
124,0.0
236,0.0
918,1285439.3481582897
1196,0.0
1342,0.0
2,4, 1, 4, 0, 2,30.00,60.00,Wednesday
88,0.0
124,0.0
236,0.0
918,1286882.5362173529
1196,0.0
1342,0.0
2,4, 1, 4, 0, 2, 0.00,60.00,Wednesday
89,0.0
125,0.0
237,0.0
919,2572321.8843756427
1197,0.0
1343,0.0
2,4, 1, 4, 0, 3, 0.00,30.00,Wednesday
88,0.0
124,0.0
236,0.0
918,1289391.5713417859
1196,0.0
1342,0.0
2,4, 1, 4, 0, 3,30.00,60.00,Wednesday
88,0.0
124,0.0
236,0.0
918,1291834.337484032
1196,0.0
1342,0.0
2,4, 1, 4, 0, 3, 0.00,60.00,Wednesday
89,0.0
125,0.0
237,0.0
919,2581225.9088258177
1197,0.0
1343,0.0
2,4, 1, 4, 0, 4, 0.00,30.00,Wednesday
88,0.0
124,0.0
236,0.0
918,1293374.5536618103
1196,0.0
1342,0.0
2,4, 1, 4, 0, 4,30.00,60.00,Wednesday
88,0.0
124,0.0
236,0.0
918,1294858.8349955825
1196,0.0
1342,0.0
2,4, 1, 4, 0, 4, 0.00,60.00,Wednesday
89,0.0
125,0.0
237,0.0
919,2588233.388657393
1197,0.0
1343,0.0
2,4, 1, 4, 0, 5, 0.00,30.00,Wednesday
88,0.0
124,0.0
236,0.0
918,1295697.1652250637
1196,0.0
1342,0.0
2,4, 1, 4, 0, 5,30.00,60.00,Wednesday
88,0.0
124,0.0
236,0.0
918,1296502.724013836
1196,0.0
1342,0.0
2,4, 1, 4, 0, 5, 0.00,60.00,Wednesday
89,0.0
125,0.0
237,0.0
919,2592199.8892388998
1197,0.0
1343,0.0
2,4, 1, 4, 0, 6, 0.00,30.00,Wednesday
88,0.0
124,0.0
236,0.0
918,1295621.478122526
1196,0.0
1342,0.0
2,4, 1, 4, 0, 6,30.00,60.00,Wednesday
88,0.0
124,0.0
236,0.0
918,1294723.7419544506
1196,0.0
1342,0.0
2,4, 1, 4, 0, 6, 0.00,60.00,Wednesday
89,0.0
125,0.0
237,0.0
919,2590345.2200769765
1197,0.0
1343,0.0
2,4, 1, 4, 0, 7, 0.00,30.00,Wednesday
88,0.0
124,0.0
236,0.0
918,1294066.2772955762
1196,0.0
1342,0.0
2,4, 1, 4, 0, 7,30.00,60.00,Wednesday
88,0.0
124,0.0
236,0.0
918,1293386.2568690766
1196,0.0
1342,0.0
2,4, 1, 4, 0, 7, 0.00,60.00,Wednesday
89,0.0
125,0.0
237,0.0
919,2587452.5341646529
1197,0.0
1343,0.0
2,4, 1, 4, 0, 8, 0.00,30.00,Wednesday
88,0.0
124,0.0
236,0.0
918,1508413.8815323278
1196,0.0
1342,0.0
2,4, 1, 4, 0, 8,30.00,60.00,Wednesday
88,0.0
124,0.0
236,0.0
918,1521209.0642334773
1196,0.0
1342,0.0
2,4, 1, 4, 0, 8, 0.00,60.00,Wednesday
89,0.0
125,0.0
237,0.0
919,3029622.945765805
1197,0.0
1343,0.0
2,4, 1, 4, 0, 9, 0.00,30.00,Wednesday
88,0.0
124,0.0
236,0.0
918,1728531.3349632435
1196,0.0
1342,0.0
2,4, 1, 4, 0, 9,30.00,60.00,Wednesday
88,0.0
124,0.0
236,0.0
918,1733479.8203926052
1196,0.0
1342,0.0
2,4, 1, 4, 0, 9, 0.00,60.00,Wednesday
89,0.0
125,0.0
237,0.0
919,3462011.1553558486
1197,0.0
1343,0.0
2,4, 1, 4, 0,10, 0.00,30.00,Wednesday
88,452306.25
124,0.0
236,452306.25
918,1581596.0374841956
1196,0.0
1342,0.0
2,4, 1, 4, 0,10,30.00,60.00,Wednesday
88,452306.25
124,0.0
236,452306.25
918,1565695.0579280917
1196,0.0
1342,0.0
2,4, 1, 4, 0,10, 0.00,60.00,Wednesday
89,904612.5
125,0.0
237,904612.5
919,3147291.095412287
1197,0.0
1343,0.0
2,4, 1, 4, 0,11, 0.00,30.00,Wednesday
88,452306.25
124,0.0
236,452306.25
918,1331243.8567902102
1196,0.0
1342,0.0
2,4, 1, 4, 0,11,30.00,60.00,Wednesday
88,452306.25
124,0.0
236,452306.25