Program Version,EnergyPlus, Version 9.0.1-bb7ca4f0da, YMD=2020.12.26 11:58
1,5,Environment Title[],Latitude[deg],Longitude[deg],Time Zone[],Elevation[m]
2,8,Day of Simulation[],Month[],Day of Month[],DST Indicator[1=yes 0=no],Hour[],StartMinute[],EndMinute[],DayType
3,5,Cumulative Day of Simulation[],Month[],Day of Month[],DST Indicator[1=yes 0=no],DayType  ! When Daily Meters Requested
4,2,Cumulative Days of Simulation[],Month[]  ! When Monthly Meters Requested
5,1,Cumulative Days of Simulation[] ! When Run Period Meters Requested
6,1,Calendar Year of Simulation[] ! When Annual Meters Requested
88,1,Electricity:Facility [J] !TimeStep
236,1,InteriorEquipment:Electricity [J] !TimeStep
124,1,InteriorLights:Electricity [J] !TimeStep
89,1,Electricity:Facility [J] !Hourly
237,1,InteriorEquipment:Electricity [J] !Hourly
125,1,InteriorLights:Electricity [J] !Hourly
90,7,Electricity:Facility [J] !Daily [Value,Min,Hour,Minute,Max,Hour,Minute]
238,7,InteriorEquipment:Electricity [J] !Daily [Value,Min,Hour,Minute,Max,Hour,Minute]
126,7,InteriorLights:Electricity [J] !Daily [Value,Min,Hour,Minute,Max,Hour,Minute]
91,9,Electricity:Facility [J] !Monthly [Value,Min,Day,Hour,Minute,Max,Day,Hour,Minute]
239,9,InteriorEquipment:Electricity [J] !Monthly [Value,Min,Day,Hour,Minute,Max,Day,Hour,Minute]
127,9,InteriorLights:Electricity [J] !Monthly [Value,Min,Day,Hour,Minute,Max,Day,Hour,Minute]
93,11,Electricity:Facility [J] !RunPeriod [Value,Min,Month,Day,Hour,Minute,Max,Month,Day,Hour,Minute]
241,11,InteriorEquipment:Electricity [J] !RunPeriod [Value,Min,Month,Day,Hour,Minute,Max,Month,Day,Hour,Minute]
129,11,InteriorLights:Electricity [J] !RunPeriod [Value,Min,Month,Day,Hour,Minute,Max,Month,Day,Hour,Minute]
1197,1,DistrictCooling:Facility [J] !Hourly
919,1,DistrictHeating:Facility [J] !Hourly
1343,1,Carbon Equivalent:Facility [kg] !Hourly
1198,7,DistrictCooling:Facility [J] !Daily [Value,Min,Hour,Minute,Max,Hour,Minute]
920,7,DistrictHeating:Facility [J] !Daily [Value,Min,Hour,Minute,Max,Hour,Minute]
1344,7,Carbon Equivalent:Facility [kg] !Daily [Value,Min,Hour,Minute,Max,Hour,Minute]
1199,9,DistrictCooling:Facility [J] !Monthly [Value,Min,Day,Hour,Minute,Max,Day,Hour,Minute]
921,9,DistrictHeating:Facility [J] !Monthly [Value,Min,Day,Hour,Minute,Max,Day,Hour,Minute]
1345,9,Carbon Equivalent:Facility [kg] !Monthly [Value,Min,Day,Hour,Minute,Max,Day,Hour,Minute]
1201,11,DistrictCooling:Facility [J] !RunPeriod [Value,Min,Month,Day,Hour,Minute,Max,Month,Day,Hour,Minute]
923,11,DistrictHeating:Facility [J] !RunPeriod [Value,Min,Month,Day,Hour,Minute,Max,Month,Day,Hour,Minute]
1347,11,Carbon Equivalent:Facility [kg] !RunPeriod [Value,Min,Month,Day,Hour,Minute,Max,Month,Day,Hour,Minute]
1196,1,DistrictCooling:Facility [J] !TimeStep
918,1,DistrictHeating:Facility [J] !TimeStep
1342,1,Carbon Equivalent:Facility [kg] !TimeStep
End of Data Dictionary
1,GINEVRARESIDENCE (O1-O1:31-12),  46.25,   6.13,   1.00, 416.00
2,1, 1, 1, 0, 1, 0.00,30.00,Sunday
88,0.0
124,0.0
236,0.0
918,1670694.3900502427
1196,0.0
1342,0.0
2,1, 1, 1, 0, 1,30.00,60.00,Sunday
88,0.0
124,0.0
236,0.0
918,1740922.2199786297
1196,0.0
1342,0.0
2,1, 1, 1, 0, 1, 0.00,60.00,Sunday
89,0.0
125,0.0
237,0.0
919,3411616.6100288724
1197,0.0
1343,0.0
2,1, 1, 1, 0, 2, 0.00,30.00,Sunday
88,0.0
124,0.0
236,0.0
918,1719243.4415809352
1196,0.0
1342,0.0
2,1, 1, 1, 0, 2,30.00,60.00,Sunday
88,0.0
124,0.0
236,0.0
918,1697597.2889486885
1196,0.0
1342,0.0
2,1, 1, 1, 0, 2, 0.00,60.00,Sunday
89,0.0
125,0.0
237,0.0
919,3416840.7305296238
1197,0.0
1343,0.0
2,1, 1, 1, 0, 3, 0.00,30.00,Sunday
88,0.0
124,0.0
236,0.0
918,1683588.5477357405
1196,0.0
1342,0.0
2,1, 1, 1, 0, 3,30.00,60.00,Sunday
88,0.0
124,0.0
236,0.0
918,1669438.2081494588
1196,0.0
1342,0.0
2,1, 1, 1, 0, 3, 0.00,60.00,Sunday
89,0.0
125,0.0
237,0.0
919,3353026.755885199
1197,0.0
1343,0.0
2,1, 1, 1, 0, 4, 0.00,30.00,Sunday
88,0.0
124,0.0
236,0.0
918,1670456.0607840184
1196,0.0
1342,0.0
2,1, 1, 1, 0, 4,30.00,60.00,Sunday
88,0.0
124,0.0
236,0.0
918,1671506.463382057
1196,0.0
1342,0.0
2,1, 1, 1, 0, 4, 0.00,60.00,Sunday
89,0.0
125,0.0
237,0.0
919,3341962.5241660757
1197,0.0
1343,0.0
2,1, 1, 1, 0, 5, 0.00,30.00,Sunday
88,0.0
124,0.0
236,0.0
918,1676577.6439670458
1196,0.0
1342,0.0
2,1, 1, 1, 0, 5,30.00,60.00,Sunday
88,0.0
124,0.0
236,0.0
918,1681535.2043025592
1196,0.0
1342,0.0
2,1, 1, 1, 0, 5, 0.00,60.00,Sunday
89,0.0
125,0.0
237,0.0
919,3358112.848269605
1197,0.0
1343,0.0
2,1, 1, 1, 0, 6, 0.00,30.00,Sunday
88,0.0
124,0.0
236,0.0
918,1690352.2839860758
1196,0.0
1342,0.0
2,1, 1, 1, 0, 6,30.00,60.00,Sunday
88,0.0
124,0.0
236,0.0
918,1699134.273940626
1196,0.0
1342,0.0
2,1, 1, 1, 0, 6, 0.00,60.00,Sunday
89,0.0
125,0.0
237,0.0
919,3389486.557926702
1197,0.0
1343,0.0
2,1, 1, 1, 0, 7, 0.00,30.00,Sunday
88,0.0
124,0.0
236,0.0
918,1703987.2341014653
1196,0.0
1342,0.0
2,1, 1, 1, 0, 7,30.00,60.00,Sunday
88,0.0
124,0.0
236,0.0
918,1708817.6139643444
1196,0.0
1342,0.0
2,1, 1, 1, 0, 7, 0.00,60.00,Sunday
89,0.0
125,0.0
237,0.0
919,3412804.8480658095
1197,0.0
1343,0.0
2,1, 1, 1, 0, 8, 0.00,30.00,Sunday
88,0.0
124,0.0
236,0.0
918,1693820.8415449742
1196,0.0
1342,0.0
2,1, 1, 1, 0, 8,30.00,60.00,Sunday
88,0.0
124,0.0
236,0.0
918,1678831.9204983125
1196,0.0
1342,0.0
2,1, 1, 1, 0, 8, 0.00,60.00,Sunday
89,0.0
125,0.0
237,0.0
919,3372652.7620432868
1197,0.0
1343,0.0
2,1, 1, 1, 0, 9, 0.00,30.00,Sunday
88,0.0
124,0.0
236,0.0
918,1663734.6513284548
1196,0.0
1342,0.0
2,1, 1, 1, 0, 9,30.00,60.00,Sunday
88,0.0
124,0.0
236,0.0
918,1648050.503672501
1196,0.0
1342,0.0
2,1, 1, 1, 0, 9, 0.00,60.00,Sunday
89,0.0
125,0.0
237,0.0
919,3311785.155000956
1197,0.0
1343,0.0
2,1, 1, 1, 0,10, 0.00,30.00,Sunday
88,527217.75
124,0.0
236,527217.75
918,2192960.9807846669
1196,0.0
1342,0.0
2,1, 1, 1, 0,10,30.00,60.00,Sunday
88,527217.75
124,0.0
236,527217.75
918,2175762.622083509
1196,0.0
1342,0.0
2,1, 1, 1, 0,10, 0.00,60.00,Sunday
89,1054435.5
125,0.0
237,1054435.5
919,4368723.602868175
1197,0.0
1343,0.0
2,1, 1, 1, 0,11, 0.00,30.00,Sunday
88,527217.75
124,0.0
236,527217.75
918,2145776.501638865
1196,0.0
1342,0.0
2,1, 1, 1, 0,11,30.00,60.00,Sunday
88,527217.75
124,0.0
236,527217.75
918,2116380.279971611
1196,0.0
1342,0.0
2,1, 1, 1, 0,11, 0.00,60.00,Sunday
89,1054435.5
125,0.0
237,1054435.5
919,4262156.781610476
1197,0.0
1343,0.0
2,1, 1, 1, 0,12, 0.00,30.00,Sunday
88,527217.75
124,0.0
236,527217.75
918,2083834.4000961646
1196,0.0
1342,0.0
2,1, 1, 1, 0,12,30.00,60.00,Sunday
88,527217.75
124,0.0
236,527217.75
918,2052078.3063163874
1196,0.0
1342,0.0
2,1, 1, 1, 0,12, 0.00,60.00,Sunday
89,1054435.5
125,0.0
237,1054435.5
919,4135912.706412552
1197,0.0
1343,0.0
2,1, 1, 1, 0,13, 0.00,30.00,Sunday
88,527217.75
124,0.0
236,527217.75
918,2024013.9734648
1196,0.0
1342,0.0
2,1, 1, 1, 0,13,30.00,60.00,Sunday
88,527217.75
124,0.0
236,527217.75
918,1995438.464607705
1196,0.0
1342,0.0
2,1, 1, 1, 0,13, 0.00,60.00,Sunday
89,1054435.5
125,0.0
237,1054435.5
919,4019452.438072505
1197,0.0
1343,0.0
2,1, 1, 1, 0,14, 0.00,30.00,Sunday
88,527217.75
124,0.0
236,527217.75
918,1987753.560677458
1196,0.0
1342,0.0
2,1, 1, 1, 0,14,30.00,60.00,Sunday
88,527217.75
124,0.0
236,527217.75
918,1980101.7532494679
1196,0.0
1342,0.0
2,1, 1, 1, 0,14, 0.00,60.00,Sunday
89,1054435.5
125,0.0
237,1054435.5
919,3967855.313926926
1197,0.0
1343,0.0
2,1, 1, 1, 0,15, 0.00,30.00,Sunday
88,527217.75
124,0.0
236,527217.75
918,1971806.313594142
1196,0.0
1342,0.0
2,1, 1, 1, 0,15,30.00,60.00,Sunday
88,527217.75
124,0.0
236,527217.75
918,1963594.123949713
1196,0.0
1342,0.0
2,1, 1, 1, 0,15, 0.00,60.00,Sunday
89,1054435.5
125,0.0
237,1054435.5
919,3935400.437543855
1197,0.0
1343,0.0
2,1, 1, 1, 0,16, 0.00,30.00,Sunday
88,527217.75
124,0.0
236,527217.75
918,1955416.3004251852
1196,0.0
1342,0.0
2,1, 1, 1, 0,16,30.00,60.00,Sunday
88,527217.75
124,0.0
236,527217.75
918,1947281.4724829049
1196,0.0
1342,0.0
2,1, 1, 1, 0,16, 0.00,60.00,Sunday
89,1054435.5
125,0.0
237,1054435.5
919,3902697.7729080899
1197,0.0
1343,0.0
2,1, 1, 1, 0,17, 0.00,30.00,Sunday
88,527217.75
124,0.0
236,527217.75
918,1960473.2294690428
1196,0.0
1342,0.0
2,1, 1, 1, 0,17,30.00,60.00,Sunday
88,527217.75
124,0.0
236,527217.75
918,1973601.2757125556
1196,0.0
1342,0.0
2,1, 1, 1, 0,17, 0.00,60.00,Sunday
89,1054435.5
125,0.0
237,1054435.5
919,3934074.5051815987
1197,0.0
1343,0.0
2,1, 1, 1, 0,18, 0.00,30.00,Sunday
88,527217.75
124,0.0
236,527217.75
918,1990042.4835330046
1196,0.0
1342,0.0
2,1, 1, 1, 0,18,30.00,60.00,Sunday
88,527217.75
124,0.0
236,527217.75
918,2006494.0590648633
1196,0.0
1342,0.0
2,1, 1, 1, 0,18, 0.00,60.00,Sunday
89,1054435.5
125,0.0
237,1054435.5
919,3996536.5425978677
1197,0.0
1343,0.0
2,1, 1, 1, 0,19, 0.00,30.00,Sunday
88,738104.85
124,210887.09999999999
236,527217.75
918,1929133.0305483542
1196,0.0
1342,0.0
2,1, 1, 1, 0,19,30.00,60.00,Sunday
88,738104.85
124,210887.09999999999
236,527217.75
918,1936831.7963238997
1196,0.0
1342,0.0
2,1, 1, 1, 0,19, 0.00,60.00,Sunday
89,1476209.7
125,421774.19999999998
237,1054435.5
919,3865964.826872254
1197,0.0
1343,0.0
2,1, 1, 1, 0,20, 0.00,30.00,Sunday
88,738104.85
124,210887.09999999999
236,527217.75
918,1954015.9219282414
1196,0.0
1342,0.0
2,1, 1, 1, 0,20,30.00,60.00,Sunday
88,738104.85
124,210887.09999999999
236,527217.75
918,1971590.9218412496
1196,0.0
1342,0.0
2,1, 1, 1, 0,20, 0.00,60.00,Sunday
89,1476209.7
125,421774.19999999998
237,1054435.5
919,3925606.8437694909
1197,0.0
1343,0.0
2,1, 1, 1, 0,21, 0.00,30.00,Sunday
88,738104.85
124,210887.09999999999
236,527217.75
918,1985401.8335005379
1196,0.0
1342,0.0
2,1, 1, 1, 0,21,30.00,60.00,Sunday
88,738104.85
124,210887.09999999999
236,527217.75
918,1999482.2820662154
1196,0.0
1342,0.0
2,1, 1, 1, 0,21, 0.00,60.00,Sunday
89,1476209.7
125,421774.19999999998
237,1054435.5
919,3984884.115566753
1197,0.0
1343,0.0
2,1, 1, 1, 0,22, 0.00,30.00,Sunday
88,738104.85
124,210887.09999999999
236,527217.75
918,1546562.877568889
1196,0.0
1342,0.0
2,1, 1, 1, 0,22,30.00,60.00,Sunday
88,738104.85
124,210887.09999999999
236,527217.75
918,1565167.3034844013
1196,0.0
1342,0.0
2,1, 1, 1, 0,22, 0.00,60.00,Sunday
89,1476209.7
125,421774.19999999998
237,1054435.5
919,3111730.18105329
1197,0.0
1343,0.0
2,1, 1, 1, 0,23, 0.00,30.00,Sunday
88,210887.09999999999
124,210887.09999999999
236,0.0
918,1489418.38199804
1196,0.0
1342,0.0
2,1, 1, 1, 0,23,30.00,60.00,Sunday
88,210887.09999999999
124,210887.09999999999
236,0.0
918,1499706.9052684699
1196,0.0
1342,0.0
2,1, 1, 1, 0,23, 0.00,60.00,Sunday
89,421774.19999999998
125,421774.19999999998
237,0.0
919,2989125.2872665098
1197,0.0
1343,0.0
2,1, 1, 1, 0,24, 0.00,30.00,Sunday
88,0.0
124,0.0
236,0.0
918,1595569.4836864887
1196,0.0
1342,0.0
2,1, 1, 1, 0,24,30.00,60.00,Sunday
88,0.0
124,0.0
236,0.0
918,1606646.3340366905
1196,0.0
1342,0.0
2,1, 1, 1, 0,24, 0.00,60.00,Sunday
89,0.0
125,0.0
237,0.0
919,3202215.8177231794
1197,0.0
1343,0.0
3,1, 1, 1, 0,Sunday
90,15816532.499999997,0.0, 1,30,738104.85,19,30
126,2108871.0000000006,0.0, 1,30,210887.09999999999,19,30
238,13707661.5,0.0, 1,30,527217.75,10,30
920,87970625.96528967,1489418.38199804,23,30,2192960.9807846669,10,30
1198,0.0,0.0, 1,30,0.0, 1,30
1344,0.0,0.0, 1,30,0.0, 1,30
2,2, 1, 2, 0, 1, 0.00,30.00,Monday
88,0.0
124,0.0
236,0.0
918,1620491.3245218395
1196,0.0
1342,0.0
2,2, 1, 2, 0, 1,30.00,60.00,Monday
88,0.0
124,0.0
236,0.0
918,1633966.4730214328
1196,0.0
1342,0.0
2,2, 1, 2, 0, 1, 0.00,60.00,Monday
89,0.0
125,0.0
237,0.0
919,3254457.7975432726
1197,0.0
1343,0.0
2,2, 1, 2, 0, 2, 0.00,30.00,Monday
88,0.0
124,0.0
236,0.0
918,1643252.9398463174
1196,0.0
1342,0.0
2,2, 1, 2, 0, 2,30.00,60.00,Monday
88,0.0
124,0.0
236,0.0
918,1652350.4099099574
1196,0.0
1342,0.0
2,2, 1, 2, 0, 2, 0.00,60.00,Monday
89,0.0
125,0.0
237,0.0
919,3295603.3497562746
1197,0.0
1343,0.0
2,2, 1, 2, 0, 3, 0.00,30.00,Monday
88,0.0
124,0.0
236,0.0
918,1657470.7367423326
1196,0.0
1342,0.0
2,2, 1, 2, 0, 3,30.00,60.00,Monday
88,0.0
124,0.0
236,0.0
918,1662482.5498293667
1196,0.0
1342,0.0
2,2, 1, 2, 0, 3, 0.00,60.00,Monday
89,0.0
125,0.0
237,0.0
919,3319953.286571699
1197,0.0
1343,0.0
2,2, 1, 2, 0, 4, 0.00,30.00,Monday
88,0.0
124,0.0
236,0.0
918,1671057.9958043276
1196,0.0
1342,0.0
2,2, 1, 2, 0, 4,30.00,60.00,Monday
88,0.0
124,0.0
236,0.0
918,1679453.8289420768
1196,0.0
1342,0.0
2,2, 1, 2, 0, 4, 0.00,60.00,Monday
89,0.0
125,0.0
237,0.0
919,3350511.8247464045
1197,0.0
1343,0.0
2,2, 1, 2, 0, 5, 0.00,30.00,Monday
88,0.0
124,0.0
236,0.0
918,1699597.8267018093
1196,0.0
1342,0.0
2,2, 1, 2, 0, 5,30.00,60.00,Monday
88,0.0
124,0.0
236,0.0
918,1719679.4966357928
1196,0.0
1342,0.0
2,2, 1, 2, 0, 5, 0.00,60.00,Monday
89,0.0
125,0.0
237,0.0
919,3419277.323337602
1197,0.0
1343,0.0
2,2, 1, 2, 0, 6, 0.00,30.00,Monday
88,0.0
124,0.0
236,0.0
918,1739772.9824548832
1196,0.0
1342,0.0
2,2, 1, 2, 0, 6,30.00,60.00,Monday
88,0.0
124,0.0
236,0.0
918,1759875.8683619668
1196,0.0
1342,0.0
2,2, 1, 2, 0, 6, 0.00,60.00,Monday
89,0.0
125,0.0
237,0.0
919,3499648.8508168498
1197,0.0
1343,0.0
2,2, 1, 2, 0, 7, 0.00,30.00,Monday
88,0.0
124,0.0
236,0.0
918,1779991.4212356946
1196,0.0
1342,0.0
2,2, 1, 2, 0, 7,30.00,60.00,Monday
88,0.0
124,0.0
236,0.0
918,1800122.1930114835
1196,0.0
1342,0.0
2,2, 1, 2, 0, 7, 0.00,60.00,Monday
89,0.0
125,0.0
237,0.0
919,3580113.6142471779
1197,0.0
1343,0.0
2,2, 1, 2, 0, 8, 0.00,30.00,Monday
88,0.0
124,0.0
236,0.0
918,2009231.8663172667
1196,0.0
1342,0.0
2,2, 1, 2, 0, 8,30.00,60.00,Monday
88,0.0
124,0.0
236,0.0
918,1982882.3352094228
1196,0.0
1342,0.0
2,2, 1, 2, 0, 8, 0.00,60.00,Monday
89,0.0
125,0.0
237,0.0
919,3992114.2015266895
1197,0.0
1343,0.0
2,2, 1, 2, 0, 9, 0.00,30.00,Monday
88,0.0
124,0.0
236,0.0
918,2195955.766565204
1196,0.0
1342,0.0
2,2, 1, 2, 0, 9,30.00,60.00,Monday
88,0.0
124,0.0
236,0.0
918,2172963.5610931145
1196,0.0
1342,0.0
2,2, 1, 2, 0, 9, 0.00,60.00,Monday
89,0.0
125,0.0
237,0.0
919,4368919.327658318
1197,0.0
1343,0.0
2,2, 1, 2, 0,10, 0.00,30.00,Monday
88,527217.75
124,0.0
236,527217.75
918,2003112.5366989482
1196,0.0
1342,0.0
2,2, 1, 2, 0,10,30.00,60.00,Monday
88,527217.75
124,0.0
236,527217.75
918,1973870.4743056587
1196,0.0
1342,0.0
2,2, 1, 2, 0,10, 0.00,60.00,Monday
89,1054435.5
125,0.0
237,1054435.5
919,3976983.0110046069
1197,0.0
1343,0.0
2,2, 1, 2, 0,11, 0.00,30.00,Monday
88,527217.75
124,0.0
236,527217.75
918,1655660.7668171819
1196,0.0
1342,0.0
2,2, 1, 2, 0,11,30.00,60.00,Monday
88,527217.75
124,0.0
236,527217.75
918,1573737.9306287976
1196,0.0
1342,0.0
2,2, 1, 2, 0,11, 0.00,60.00,Monday
89,1054435.5
125,0.0
237,1054435.5
919,3229398.6974459795
1197,0.0
1343,0.0
2,2, 1, 2, 0,12, 0.00,30.00,Monday
88,527217.75
124,0.0
236,527217.75
918,1487591.7854046587
1196,0.0
1342,0.0
2,2, 1, 2, 0,12,30.00,60.00,Monday
88,527217.75
124,0.0
236,527217.75
918,1402248.8093736394
1196,0.0
1342,0.0
2,2, 1, 2, 0,12, 0.00,60.00,Monday
89,1054435.5
125,0.0
237,1054435.5
919,2889840.594778298
1197,0.0
1343,0.0
2,2, 1, 2, 0,13, 0.00,30.00,Monday
88,527217.75
124,0.0
236,527217.75
918,1321626.955228205
1196,0.0
1342,0.0
2,2, 1, 2, 0,13,30.00,60.00,Monday
88,527217.75
124,0.0
236,527217.75
918,1241301.382499638
1196,0.0
1342,0.0
2,2, 1, 2, 0,13, 0.00,60.00,Monday
89,1054435.5
125,0.0
237,1054435.5
919,2562928.337727843
1197,0.0
1343,0.0
2,2, 1, 2, 0,14, 0.00,30.00,Monday
88,527217.75
124,0.0
236,527217.75
918,1240358.6381083909
1196,0.0
1342,0.0
2,2, 1, 2, 0,14,30.00,60.00,Monday
88,527217.75
124,0.0
236,527217.75
918,1239864.594694131
1196,0.0
1342,0.0
2,2, 1, 2, 0,14, 0.00,60.00,Monday
89,1054435.5
125,0.0
237,1054435.5
919,2480223.232802522
1197,0.0
1343,0.0
2,2, 1, 2, 0,15, 0.00,30.00,Monday
88,527217.75
124,0.0
236,527217.75
918,1239234.5047621118
1196,0.0
1342,0.0
2,2, 1, 2, 0,15,30.00,60.00,Monday
88,527217.75
124,0.0
236,527217.75
918,1238918.1033736242
1196,0.0
1342,0.0
2,2, 1, 2, 0,15, 0.00,60.00,Monday
89,1054435.5
125,0.0
237,1054435.5
919,2478152.6081357358
1197,0.0
1343,0.0
2,2, 1, 2, 0,16, 0.00,30.00,Monday
88,527217.75
124,0.0
236,527217.75
918,1238758.6283364846
1196,0.0
1342,0.0
2,2, 1, 2, 0,16,30.00,60.00,Monday
88,527217.75
124,0.0
236,527217.75
918,1239752.992727304
1196,0.0
1342,0.0
2,2, 1, 2, 0,16, 0.00,60.00,Monday
89,1054435.5
125,0.0
237,1054435.5
919,2478511.6210637886
1197,0.0
1343,0.0
2,2, 1, 2, 0,17, 0.00,30.00,Monday
88,527217.75
124,0.0
236,527217.75
918,1325813.183154561
1196,0.0
1342,0.0
2,2, 1, 2, 0,17,30.00,60.00,Monday
88,527217.75
124,0.0
236,527217.75
918,1411430.5948512518
1196,0.0
1342,0.0
2,2, 1, 2, 0,17, 0.00,60.00,Monday
89,1054435.5
125,0.0
237,1054435.5
919,2737243.778005813
1197,0.0
1343,0.0
2,2, 1, 2, 0,18, 0.00,30.00,Monday
88,527217.75
124,0.0
236,527217.75
918,1561681.6679833104
1196,0.0
1342,0.0
2,2, 1, 2, 0,18,30.00,60.00,Monday
88,527217.75
124,0.0
236,527217.75
918,1594150.3741435793
1196,0.0
1342,0.0
2,2, 1, 2, 0,18, 0.00,60.00,Monday
89,1054435.5
125,0.0
237,1054435.5
919,3155832.0421268895
1197,0.0
1343,0.0
2,2, 1, 2, 0,19, 0.00,30.00,Monday
88,738104.85
124,210887.09999999999
236,527217.75
918,1654982.5978997064
1196,0.0
1342,0.0
2,2, 1, 2, 0,19,30.00,60.00,Monday
88,738104.85
124,210887.09999999999
236,527217.75
918,1683087.8358277288
1196,0.0
1342,0.0
2,2, 1, 2, 0,19, 0.00,60.00,Monday
89,1476209.7
125,421774.19999999998
237,1054435.5
919,3338070.433727435
1197,0.0
1343,0.0
2,2, 1, 2, 0,20, 0.00,30.00,Monday
88,738104.85
124,210887.09999999999
236,527217.75
918,1813136.1474413528
1196,0.0
1342,0.0
2,2, 1, 2, 0,20,30.00,60.00,Monday
88,738104.85
124,210887.09999999999
236,527217.75
918,1825724.8343114285
1196,0.0
1342,0.0
2,2, 1, 2, 0,20, 0.00,60.00,Monday
89,1476209.7
125,421774.19999999998
237,1054435.5
919,3638860.981752781
1197,0.0
1343,0.0
2,2, 1, 2, 0,21, 0.00,30.00,Monday
88,738104.85
124,210887.09999999999
236,527217.75
918,1957135.3201455808
1196,0.0
1342,0.0
2,2, 1, 2, 0,21,30.00,60.00,Monday
88,738104.85
124,210887.09999999999
236,527217.75
918,1970923.9153569823
1196,0.0
1342,0.0
2,2, 1, 2, 0,21, 0.00,60.00,Monday
89,1476209.7
125,421774.19999999998
237,1054435.5
919,3928059.235502563
1197,0.0
1343,0.0
2,2, 1, 2, 0,22, 0.00,30.00,Monday
88,738104.85
124,210887.09999999999
236,527217.75
918,1984929.4427357545
1196,0.0
1342,0.0
2,2, 1, 2, 0,22,30.00,60.00,Monday
88,738104.85
124,210887.09999999999
236,527217.75
918,1999012.8340030844
1196,0.0
1342,0.0
2,2, 1, 2, 0,22, 0.00,60.00,Monday
89,1476209.7
125,421774.19999999998
237,1054435.5
919,3983942.2767388389
1197,0.0
1343,0.0
2,2, 1, 2, 0,23, 0.00,30.00,Monday
88,210887.09999999999
124,210887.09999999999
236,0.0
918,1773154.4736612635
1196,0.0
1342,0.0
2,2, 1, 2, 0,23,30.00,60.00,Monday
88,210887.09999999999
124,210887.09999999999
236,0.0
918,1748839.4855179846
1196,0.0
1342,0.0
2,2, 1, 2, 0,23, 0.00,60.00,Monday
89,421774.19999999998
125,421774.19999999998
237,0.0
919,3521993.9591792479
1197,0.0
1343,0.0
2,2, 1, 2, 0,24, 0.00,30.00,Monday
88,0.0
124,0.0
236,0.0
918,1582078.171868023
1196,0.0
1342,0.0
2,2, 1, 2, 0,24,30.00,60.00,Monday
88,0.0
124,0.0
236,0.0
918,1566194.5701333287
1196,0.0
1342,0.0
2,2, 1, 2, 0,24, 0.00,60.00,Monday
89,0.0
125,0.0
237,0.0
919,3148272.742001352
1197,0.0
1343,0.0
3,2, 1, 2, 0,Monday
90,15816532.499999997,0.0, 1,30,738104.85,19,30
126,2108871.0000000006,0.0, 1,30,210887.09999999999,19,30
238,13707661.5,0.0, 1,30,527217.75,10,30
920,79628913.12819797,1238758.6283364846,16,30,2195955.766565204, 9,30
1198,0.0,0.0, 1,30,0.0, 1,30
1344,0.0,0.0, 1,30,0.0, 1,30
2,3, 1, 3, 0, 1, 0.00,30.00,Tuesday
88,0.0
124,0.0
236,0.0
918,1428291.0542833247
1196,0.0
1342,0.0
2,3, 1, 3, 0, 1,30.00,60.00,Tuesday
88,0.0
124,0.0
236,0.0
918,1407895.6406685352
1196,0.0
1342,0.0
2,3, 1, 3, 0, 1, 0.00,60.00,Tuesday
89,0.0
125,0.0
237,0.0
919,2836186.69495186
1197,0.0
1343,0.0
2,3, 1, 3, 0, 2, 0.00,30.00,Tuesday
88,0.0
124,0.0
236,0.0
918,1405175.4740288684
1196,0.0
1342,0.0
2,3, 1, 3, 0, 2,30.00,60.00,Tuesday
88,0.0
124,0.0
236,0.0
918,1402232.9906999628
1196,0.0
1342,0.0
2,3, 1, 3, 0, 2, 0.00,60.00,Tuesday
89,0.0
125,0.0
237,0.0
919,2807408.4647288315
1197,0.0
1343,0.0
2,3, 1, 3, 0, 3, 0.00,30.00,Tuesday
88,0.0
124,0.0
236,0.0
918,1399786.5710667833
1196,0.0
1342,0.0
2,3, 1, 3, 0, 3,30.00,60.00,Tuesday
88,0.0
124,0.0
236,0.0
918,1397203.9943257035
1196,0.0
1342,0.0
2,3, 1, 3, 0, 3, 0.00,60.00,Tuesday
89,0.0
125,0.0
237,0.0
919,2796990.5653924869
1197,0.0
1343,0.0
2,3, 1, 3, 0, 4, 0.00,30.00,Tuesday
88,0.0
124,0.0
236,0.0
918,1393747.0886539834
1196,0.0
1342,0.0
2,3, 1, 3, 0, 4,30.00,60.00,Tuesday
88,0.0
124,0.0
236,0.0
918,1390213.9356292356
1196,0.0
1342,0.0
2,3, 1, 3, 0, 4, 0.00,60.00,Tuesday
89,0.0
125,0.0
237,0.0
919,2783961.024283219
1197,0.0
1343,0.0
2,3, 1, 3, 0, 5, 0.00,30.00,Tuesday
88,0.0
124,0.0
236,0.0
918,1376038.9014259312
1196,0.0
1342,0.0
2,3, 1, 3, 0, 5,30.00,60.00,Tuesday
88,0.0
124,0.0
236,0.0
918,1361844.7555437505
1196,0.0
1342,0.0
2,3, 1, 3, 0, 5, 0.00,60.00,Tuesday
89,0.0
125,0.0
237,0.0
919,2737883.6569696816
1197,0.0
1343,0.0
2,3, 1, 3, 0, 6, 0.00,30.00,Tuesday
88,0.0
124,0.0
236,0.0
918,1350733.3969397
1196,0.0
1342,0.0
2,3, 1, 3, 0, 6,30.00,60.00,Tuesday
88,0.0
124,0.0
236,0.0
918,1339613.3093323117
1196,0.0
1342,0.0
2,3, 1, 3, 0, 6, 0.00,60.00,Tuesday
89,0.0
125,0.0
237,0.0
919,2690346.7062720118
1197,0.0
1343,0.0
2,3, 1, 3, 0, 7, 0.00,30.00,Tuesday
88,0.0
124,0.0
236,0.0
918,1324791.6366409315
1196,0.0
1342,0.0
2,3, 1, 3, 0, 7,30.00,60.00,Tuesday
88,0.0
124,0.0
236,0.0
918,1309976.3238475016
1196,0.0
1342,0.0
2,3, 1, 3, 0, 7, 0.00,60.00,Tuesday
89,0.0
125,0.0
237,0.0
919,2634767.960488433
1197,0.0
1343,0.0
2,3, 1, 3, 0, 8, 0.00,30.00,Tuesday
88,0.0
124,0.0
236,0.0
918,1505529.2016052725
1196,0.0
1342,0.0
2,3, 1, 3, 0, 8,30.00,60.00,Tuesday
88,0.0
124,0.0
236,0.0
918,1465529.5045260888
1196,0.0
1342,0.0
2,3, 1, 3, 0, 8, 0.00,60.00,Tuesday
89,0.0
125,0.0
237,0.0
919,2971058.7061313616
1197,0.0
1343,0.0
2,3, 1, 3, 0, 9, 0.00,30.00,Tuesday
88,0.0
124,0.0
236,0.0
918,1664891.4938005997
1196,0.0
1342,0.0
2,3, 1, 3, 0, 9,30.00,60.00,Tuesday
88,0.0
124,0.0
236,0.0
918,1628564.2363424865
1196,0.0
1342,0.0
2,3, 1, 3, 0, 9, 0.00,60.00,Tuesday
89,0.0
125,0.0
237,0.0
919,3293455.730143086
1197,0.0
1343,0.0
2,3, 1, 3, 0,10, 0.00,30.00,Tuesday
88,527217.75
124,0.0
236,527217.75
918,1403023.451219339
1196,0.0
1342,0.0
2,3, 1, 3, 0,10,30.00,60.00,Tuesday
88,527217.75
124,0.0
236,527217.75
918,1359585.1506467437
1196,0.0
1342,0.0
2,3, 1, 3, 0,10, 0.00,60.00,Tuesday
89,1054435.5
125,0.0
237,1054435.5
919,2762608.6018660825
1197,0.0
1343,0.0
2,3, 1, 3, 0,11, 0.00,30.00,Tuesday
88,527217.75
124,0.0
236,527217.75
918,1088600.5804636102
1196,0.0
1342,0.0
2,3, 1, 3, 0,11,30.00,60.00,Tuesday
88,527217.75
124,0.0
236,527217.75
918,1053455.2702720555
1196,0.0
1342,0.0
2,3, 1, 3, 0,11, 0.00,60.00,Tuesday
89,1054435.5
125,0.0
237,1054435.5
919,2142055.8507356655
1197,0.0
1343,0.0
2,3, 1, 3, 0,12, 0.00,30.00,Tuesday
88,527217.75
124,0.0
236,527217.75
918,1018382.1039203624
1196,0.0
1342,0.0
2,3, 1, 3, 0,12,30.00,60.00,Tuesday
88,527217.75
124,0.0
236,527217.75
918,983508.6468590221
1196,0.0
1342,0.0
2,3, 1, 3, 0,12, 0.00,60.00,Tuesday
89,1054435.5
125,0.0
237,1054435.5
919,2001890.7507793846
1197,0.0
1343,0.0
2,3, 1, 3, 0,13, 0.00,30.00,Tuesday
88,527217.75
124,0.0
236,527217.75
918,955227.8722492
1196,0.0
1342,0.0
2,3, 1, 3, 0,13,30.00,60.00,Tuesday
88,527217.75
124,0.0
236,527217.75
918,920733.9289293124
1196,0.0
1342,0.0
2,3, 1, 3, 0,13, 0.00,60.00,Tuesday
89,1054435.5
125,0.0
237,1054435.5
919,1875961.8011785125
1197,0.0
1343,0.0
2,3, 1, 3, 0,14, 0.00,30.00,Tuesday
88,527217.75
124,0.0
236,527217.75
918,954389.6179383267
1196,0.0
1342,0.0
2,3, 1, 3, 0,14,30.00,60.00,Tuesday
88,527217.75
124,0.0
236,527217.75
918,982457.8732383532
1196,0.0
1342,0.0
2,3, 1, 3, 0,14, 0.00,60.00,Tuesday
89,1054435.5
125,0.0
237,1054435.5
919,1936847.4911766798
1197,0.0
1343,0.0
2,3, 1, 3, 0,15, 0.00,30.00,Tuesday
88,527217.75
124,0.0
236,527217.75
918,1017078.7579360325
1196,0.0
1342,0.0
2,3, 1, 3, 0,15,30.00,60.00,Tuesday
88,527217.75
124,0.0
236,527217.75
918,1051881.9379437795
1196,0.0
1342,0.0
2,3, 1, 3, 0,15, 0.00,60.00,Tuesday
89,1054435.5
125,0.0
237,1054435.5
919,2068960.695879812
1197,0.0
1343,0.0
2,3, 1, 3, 0,16, 0.00,30.00,Tuesday
88,527217.75
124,0.0
236,527217.75
918,1091314.7806057374
1196,0.0
1342,0.0
2,3, 1, 3, 0,16,30.00,60.00,Tuesday
88,527217.75
124,0.0
236,527217.75
918,1126124.0780644566
1196,0.0
1342,0.0
2,3, 1, 3, 0,16, 0.00,60.00,Tuesday
89,1054435.5
125,0.0
237,1054435.5
919,2217438.8586701939
1197,0.0
1343,0.0
2,3, 1, 3, 0,17, 0.00,30.00,Tuesday
88,527217.75
124,0.0
236,527217.75
918,1134292.7717086105
1196,0.0
1342,0.0
2,3, 1, 3, 0,17,30.00,60.00,Tuesday
88,527217.75
124,0.0
236,527217.75
918,1137614.244505845
1196,0.0
1342,0.0
2,3, 1, 3, 0,17, 0.00,60.00,Tuesday
89,1054435.5
125,0.0
237,1054435.5
919,2271907.0162144557
1197,0.0
1343,0.0
2,3, 1, 3, 0,18, 0.00,30.00,Tuesday
88,527217.75
124,0.0
236,527217.75
918,1259711.4420350025
1196,0.0
1342,0.0
2,3, 1, 3, 0,18,30.00,60.00,Tuesday
88,527217.75
124,0.0
236,527217.75
918,1263973.5578784215
1196,0.0
1342,0.0
2,3, 1, 3, 0,18, 0.00,60.00,Tuesday
89,1054435.5
125,0.0
237,1054435.5
919,2523684.999913424
1197,0.0
1343,0.0
2,3, 1, 3, 0,19, 0.00,30.00,Tuesday
88,738104.85
124,210887.09999999999
236,527217.75
918,1299682.2848027265
1196,0.0
1342,0.0
2,3, 1, 3, 0,19,30.00,60.00,Tuesday
88,738104.85
124,210887.09999999999
236,527217.75
918,1302497.101955465
1196,0.0
1342,0.0
2,3, 1, 3, 0,19, 0.00,60.00,Tuesday
89,1476209.7
125,421774.19999999998
237,1054435.5
919,2602179.3867581917
1197,0.0
1343,0.0
2,3, 1, 3, 0,20, 0.00,30.00,Tuesday
88,738104.85
124,210887.09999999999
236,527217.75
918,1432890.4057616287
1196,0.0
1342,0.0
2,3, 1, 3, 0,20,30.00,60.00,Tuesday
88,738104.85
124,210887.09999999999
236,527217.75
918,1445877.8626828385
1196,0.0
1342,0.0
2,3, 1, 3, 0,20, 0.00,60.00,Tuesday
89,1476209.7
125,421774.19999999998
237,1054435.5
919,2878768.2684444675
1197,0.0
1343,0.0
2,3, 1, 3, 0,21, 0.00,30.00,Tuesday
88,738104.85
124,210887.09999999999
236,527217.75
918,1573122.2220030588
1196,0.0
1342,0.0
2,3, 1, 3, 0,21,30.00,60.00,Tuesday
88,738104.85
124,210887.09999999999
236,527217.75
918,1582773.6078184276
1196,0.0
1342,0.0
2,3, 1, 3, 0,21, 0.00,60.00,Tuesday
89,1476209.7
125,421774.19999999998
237,1054435.5
919,3155895.829821486
1197,0.0
1343,0.0
2,3, 1, 3, 0,22, 0.00,30.00,Tuesday
88,738104.85
124,210887.09999999999
236,527217.75
918,1596045.1359972123
1196,0.0
1342,0.0
2,3, 1, 3, 0,22,30.00,60.00,Tuesday
88,738104.85
124,210887.09999999999
236,527217.75
918,1609477.0728830964
1196,0.0
1342,0.0
2,3, 1, 3, 0,22, 0.00,60.00,Tuesday
89,1476209.7
125,421774.19999999998
237,1054435.5
919,3205522.2088803087
1197,0.0
1343,0.0
2,3, 1, 3, 0,23, 0.00,30.00,Tuesday
88,210887.09999999999
124,210887.09999999999
236,0.0
918,1440956.659521934
1196,0.0
1342,0.0
2,3, 1, 3, 0,23,30.00,60.00,Tuesday
88,210887.09999999999
124,210887.09999999999
236,0.0
918,1446565.4283369706
1196,0.0
1342,0.0
2,3, 1, 3, 0,23, 0.00,60.00,Tuesday
89,421774.19999999998
125,421774.19999999998
237,0.0
919,2887522.0878589048
1197,0.0
1343,0.0
2,3, 1, 3, 0,24, 0.00,30.00,Tuesday
88,0.0
124,0.0
236,0.0
918,1306440.359580199
1196,0.0
1342,0.0
2,3, 1, 3, 0,24,30.00,60.00,Tuesday
88,0.0
124,0.0
236,0.0
918,1317206.3165429519
1196,0.0
1342,0.0
2,3, 1, 3, 0,24, 0.00,60.00,Tuesday
89,0.0
125,0.0
237,0.0
919,2623646.6761231508
1197,0.0
1343,0.0
3,3, 1, 3, 0,Tuesday
90,15816532.499999997,0.0, 1,30,738104.85,19,30
126,2108871.0000000006,0.0, 1,30,210887.09999999999,19,30
238,13707661.5,0.0, 1,30,527217.75,10,30
920,62706950.03366169,920733.9289293124,13,60,1664891.4938005997, 9,30
1198,0.0,0.0, 1,30,0.0, 1,30
1344,0.0,0.0, 1,30,0.0, 1,30
2,4, 1, 4, 0, 1, 0.00,30.00,Wednesday
88,0.0
124,0.0
236,0.0
918,1217398.6552006233
1196,0.0
1342,0.0
2,4, 1, 4, 0, 1,30.00,60.00,Wednesday
88,0.0
124,0.0
236,0.0
918,1226502.6944893418
1196,0.0
1342,0.0
2,4, 1, 4, 0, 1, 0.00,60.00,Wednesday
89,0.0
125,0.0
237,0.0
919,2443901.349689965
1197,0.0
1343,0.0
2,4, 1, 4, 0, 2, 0.00,30.00,Wednesday
88,0.0
124,0.0
236,0.0
918,1249828.6858219989
1196,0.0
1342,0.0
2,4, 1, 4, 0, 2,30.00,60.00,Wednesday
88,0.0
124,0.0
236,0.0
918,1263942.9705842937
1196,0.0
1342,0.0
2,4, 1, 4, 0, 2, 0.00,60.00,Wednesday
89,0.0
125,0.0
237,0.0
919,2513771.6564062929
1197,0.0
1343,0.0
2,4, 1, 4, 0, 3, 0.00,30.00,Wednesday
88,0.0
124,0.0
236,0.0
918,1283664.2053451134
1196,0.0
1342,0.0
2,4, 1, 4, 0, 3,30.00,60.00,Wednesday
88,0.0
124,0.0
236,0.0
918,1303271.107146155
1196,0.0
1342,0.0
2,4, 1, 4, 0, 3, 0.00,60.00,Wednesday
89,0.0
125,0.0
237,0.0
919,2586935.3124912686
1197,0.0
1343,0.0
2,4, 1, 4, 0, 4, 0.00,30.00,Wednesday
88,0.0
124,0.0
236,0.0
918,1325908.20326155
1196,0.0
1342,0.0
2,4, 1, 4, 0, 4,30.00,60.00,Wednesday
88,0.0
124,0.0
236,0.0
918,1348505.8164702233
1196,0.0
1342,0.0
2,4, 1, 4, 0, 4, 0.00,60.00,Wednesday
89,0.0
125,0.0
237,0.0
919,2674414.019731773
1197,0.0
1343,0.0
2,4, 1, 4, 0, 5, 0.00,30.00,Wednesday
88,0.0
124,0.0
236,0.0
918,1367565.5746654622
1196,0.0
1342,0.0
2,4, 1, 4, 0, 5,30.00,60.00,Wednesday
88,0.0
124,0.0
236,0.0
918,1386615.2173799324
1196,0.0
1342,0.0
2,4, 1, 4, 0, 5, 0.00,60.00,Wednesday
89,0.0
125,0.0
237,0.0
919,2754180.7920453946
1197,0.0
1343,0.0
2,4, 1, 4, 0, 6, 0.00,30.00,Wednesday
88,0.0
124,0.0
236,0.0
918,1402598.8020316442
1196,0.0
1342,0.0
2,4, 1, 4, 0, 6,30.00,60.00,Wednesday
88,0.0
124,0.0
236,0.0
918,1418594.1676570755
1196,0.0
1342,0.0
2,4, 1, 4, 0, 6, 0.00,60.00,Wednesday
89,0.0
125,0.0
237,0.0
919,2821192.9696887198
1197,0.0
1343,0.0
2,4, 1, 4, 0, 7, 0.00,30.00,Wednesday
88,0.0
124,0.0
236,0.0
918,1437733.2292081174
1196,0.0
1342,0.0
2,4, 1, 4, 0, 7,30.00,60.00,Wednesday
88,0.0
124,0.0
236,0.0
918,1456849.7619723222
1196,0.0
1342,0.0
2,4, 1, 4, 0, 7, 0.00,60.00,Wednesday
89,0.0
125,0.0
237,0.0
919,2894582.9911804397
1197,0.0
1343,0.0
2,4, 1, 4, 0, 8, 0.00,30.00,Wednesday
88,0.0
124,0.0
236,0.0
918,1674233.4464330832
1196,0.0
1342,0.0
2,4, 1, 4, 0, 8,30.00,60.00,Wednesday
88,0.0
124,0.0
236,0.0
918,1655983.962403563
1196,0.0
1342,0.0
2,4, 1, 4, 0, 8, 0.00,60.00,Wednesday
89,0.0
125,0.0
237,0.0
919,3330217.408836646
1197,0.0
1343,0.0
2,4, 1, 4, 0, 9, 0.00,30.00,Wednesday
88,0.0
124,0.0
236,0.0
918,1873367.9145675812
1196,0.0
1342,0.0