Program Version,EnergyPlus, Version 9.0.1-bb7ca4f0da, YMD=2020.12.13 21:13
1,5,Environment Title[],Latitude[deg],Longitude[deg],Time Zone[],Elevation[m]
2,8,Day of Simulation[],Month[],Day of Month[],DST Indicator[1=yes 0=no],Hour[],StartMinute[],EndMinute[],DayType
3,5,Cumulative Day of Simulation[],Month[],Day of Month[],DST Indicator[1=yes 0=no],DayType  ! When Daily Meters Requested
4,2,Cumulative Days of Simulation[],Month[]  ! When Monthly Meters Requested
5,1,Cumulative Days of Simulation[] ! When Run Period Meters Requested
6,1,Calendar Year of Simulation[] ! When Annual Meters Requested
88,1,Electricity:Facility [J] !TimeStep
236,1,InteriorEquipment:Electricity [J] !TimeStep
124,1,InteriorLights:Electricity [J] !TimeStep
89,1,Electricity:Facility [J] !Hourly
237,1,InteriorEquipment:Electricity [J] !Hourly
125,1,InteriorLights:Electricity [J] !Hourly
90,7,Electricity:Facility [J] !Daily [Value,Min,Hour,Minute,Max,Hour,Minute]
238,7,InteriorEquipment:Electricity [J] !Daily [Value,Min,Hour,Minute,Max,Hour,Minute]
126,7,InteriorLights:Electricity [J] !Daily [Value,Min,Hour,Minute,Max,Hour,Minute]
91,9,Electricity:Facility [J] !Monthly [Value,Min,Day,Hour,Minute,Max,Day,Hour,Minute]
239,9,InteriorEquipment:Electricity [J] !Monthly [Value,Min,Day,Hour,Minute,Max,Day,Hour,Minute]
127,9,InteriorLights:Electricity [J] !Monthly [Value,Min,Day,Hour,Minute,Max,Day,Hour,Minute]
93,11,Electricity:Facility [J] !RunPeriod [Value,Min,Month,Day,Hour,Minute,Max,Month,Day,Hour,Minute]
241,11,InteriorEquipment:Electricity [J] !RunPeriod [Value,Min,Month,Day,Hour,Minute,Max,Month,Day,Hour,Minute]
129,11,InteriorLights:Electricity [J] !RunPeriod [Value,Min,Month,Day,Hour,Minute,Max,Month,Day,Hour,Minute]
1197,1,DistrictCooling:Facility [J] !Hourly
919,1,DistrictHeating:Facility [J] !Hourly
1343,1,Carbon Equivalent:Facility [kg] !Hourly
1198,7,DistrictCooling:Facility [J] !Daily [Value,Min,Hour,Minute,Max,Hour,Minute]
920,7,DistrictHeating:Facility [J] !Daily [Value,Min,Hour,Minute,Max,Hour,Minute]
1344,7,Carbon Equivalent:Facility [kg] !Daily [Value,Min,Hour,Minute,Max,Hour,Minute]
1199,9,DistrictCooling:Facility [J] !Monthly [Value,Min,Day,Hour,Minute,Max,Day,Hour,Minute]
921,9,DistrictHeating:Facility [J] !Monthly [Value,Min,Day,Hour,Minute,Max,Day,Hour,Minute]
1345,9,Carbon Equivalent:Facility [kg] !Monthly [Value,Min,Day,Hour,Minute,Max,Day,Hour,Minute]
1201,11,DistrictCooling:Facility [J] !RunPeriod [Value,Min,Month,Day,Hour,Minute,Max,Month,Day,Hour,Minute]
923,11,DistrictHeating:Facility [J] !RunPeriod [Value,Min,Month,Day,Hour,Minute,Max,Month,Day,Hour,Minute]
1347,11,Carbon Equivalent:Facility [kg] !RunPeriod [Value,Min,Month,Day,Hour,Minute,Max,Month,Day,Hour,Minute]
1196,1,DistrictCooling:Facility [J] !TimeStep
918,1,DistrictHeating:Facility [J] !TimeStep
1342,1,Carbon Equivalent:Facility [kg] !TimeStep
End of Data Dictionary
1,GINEVRARESIDENCE (O1-O1:31-12),  46.25,   6.13,   1.00, 416.00
2,1, 1, 1, 0, 1, 0.00,30.00,Sunday
88,0.0
124,0.0
236,0.0
918,2094036.632594475
1196,0.0
1342,0.0
2,1, 1, 1, 0, 1,30.00,60.00,Sunday
88,0.0
124,0.0
236,0.0
918,2169160.1526632367
1196,0.0
1342,0.0
2,1, 1, 1, 0, 1, 0.00,60.00,Sunday
89,0.0
125,0.0
237,0.0
919,4263196.785257712
1197,0.0
1343,0.0
2,1, 1, 1, 0, 2, 0.00,30.00,Sunday
88,0.0
124,0.0
236,0.0
918,2145604.442369957
1196,0.0
1342,0.0
2,1, 1, 1, 0, 2,30.00,60.00,Sunday
88,0.0
124,0.0
236,0.0
918,2122294.2357756046
1196,0.0
1342,0.0
2,1, 1, 1, 0, 2, 0.00,60.00,Sunday
89,0.0
125,0.0
237,0.0
919,4267898.678145561
1197,0.0
1343,0.0
2,1, 1, 1, 0, 3, 0.00,30.00,Sunday
88,0.0
124,0.0
236,0.0
918,2107312.0348570069
1196,0.0
1342,0.0
2,1, 1, 1, 0, 3,30.00,60.00,Sunday
88,0.0
124,0.0
236,0.0
918,2092159.2200741796
1196,0.0
1342,0.0
2,1, 1, 1, 0, 3, 0.00,60.00,Sunday
89,0.0
125,0.0
237,0.0
919,4199471.254931186
1197,0.0
1343,0.0
2,1, 1, 1, 0, 4, 0.00,30.00,Sunday
88,0.0
124,0.0
236,0.0
918,2093277.7074004939
1196,0.0
1342,0.0
2,1, 1, 1, 0, 4,30.00,60.00,Sunday
88,0.0
124,0.0
236,0.0
918,2094285.9310968468
1196,0.0
1342,0.0
2,1, 1, 1, 0, 4, 0.00,60.00,Sunday
89,0.0
125,0.0
237,0.0
919,4187563.6384973407
1197,0.0
1343,0.0
2,1, 1, 1, 0, 5, 0.00,30.00,Sunday
88,0.0
124,0.0
236,0.0
918,2101109.317037599
1196,0.0
1342,0.0
2,1, 1, 1, 0, 5,30.00,60.00,Sunday
88,0.0
124,0.0
236,0.0
918,2108082.253425706
1196,0.0
1342,0.0
2,1, 1, 1, 0, 5, 0.00,60.00,Sunday
89,0.0
125,0.0
237,0.0
919,4209191.570463305
1197,0.0
1343,0.0
2,1, 1, 1, 0, 6, 0.00,30.00,Sunday
88,0.0
124,0.0
236,0.0
918,2119340.322753226
1196,0.0
1342,0.0
2,1, 1, 1, 0, 6,30.00,60.00,Sunday
88,0.0
124,0.0
236,0.0
918,2130723.5110158275
1196,0.0
1342,0.0
2,1, 1, 1, 0, 6, 0.00,60.00,Sunday
89,0.0
125,0.0
237,0.0
919,4250063.833769053
1197,0.0
1343,0.0
2,1, 1, 1, 0, 7, 0.00,30.00,Sunday
88,0.0
124,0.0
236,0.0
918,2138063.144256232
1196,0.0
1342,0.0
2,1, 1, 1, 0, 7,30.00,60.00,Sunday
88,0.0
124,0.0
236,0.0
918,2145477.3848008809
1196,0.0
1342,0.0
2,1, 1, 1, 0, 7, 0.00,60.00,Sunday
89,0.0
125,0.0
237,0.0
919,4283540.5290571129
1197,0.0
1343,0.0
2,1, 1, 1, 0, 8, 0.00,30.00,Sunday
88,0.0
124,0.0
236,0.0
918,2128819.307878937
1196,0.0
1342,0.0
2,1, 1, 1, 0, 8,30.00,60.00,Sunday
88,0.0
124,0.0
236,0.0
918,2112306.3022911895
1196,0.0
1342,0.0
2,1, 1, 1, 0, 8, 0.00,60.00,Sunday
89,0.0
125,0.0
237,0.0
919,4241125.610170126
1197,0.0
1343,0.0
2,1, 1, 1, 0, 9, 0.00,30.00,Sunday
88,0.0
124,0.0
236,0.0
918,2095924.8987774356
1196,0.0
1342,0.0
2,1, 1, 1, 0, 9,30.00,60.00,Sunday
88,0.0
124,0.0
236,0.0
918,2078785.1857484875
1196,0.0
1342,0.0
2,1, 1, 1, 0, 9, 0.00,60.00,Sunday
89,0.0
125,0.0
237,0.0
919,4174710.0845259234
1197,0.0
1343,0.0
2,1, 1, 1, 0,10, 0.00,30.00,Sunday
88,527217.75
124,0.0
236,527217.75
918,2618014.2247783688
1196,0.0
1342,0.0
2,1, 1, 1, 0,10,30.00,60.00,Sunday
88,527217.75
124,0.0
236,527217.75
918,2596583.649107719
1196,0.0
1342,0.0
2,1, 1, 1, 0,10, 0.00,60.00,Sunday
89,1054435.5
125,0.0
237,1054435.5
919,5214597.873886088
1197,0.0
1343,0.0
2,1, 1, 1, 0,11, 0.00,30.00,Sunday
88,527217.75
124,0.0
236,527217.75
918,2561890.852401127
1196,0.0
1342,0.0
2,1, 1, 1, 0,11,30.00,60.00,Sunday
88,527217.75
124,0.0
236,527217.75
918,2531867.3081211096
1196,0.0
1342,0.0
2,1, 1, 1, 0,11, 0.00,60.00,Sunday
89,1054435.5
125,0.0
237,1054435.5
919,5093758.1605222369
1197,0.0
1343,0.0
2,1, 1, 1, 0,12, 0.00,30.00,Sunday
88,527217.75
124,0.0
236,527217.75
918,2499804.7527185867
1196,0.0
1342,0.0
2,1, 1, 1, 0,12,30.00,60.00,Sunday
88,527217.75
124,0.0
236,527217.75
918,2468861.468841125
1196,0.0
1342,0.0
2,1, 1, 1, 0,12, 0.00,60.00,Sunday
89,1054435.5
125,0.0
237,1054435.5
919,4968666.221559711
1197,0.0
1343,0.0
2,1, 1, 1, 0,13, 0.00,30.00,Sunday
88,527217.75
124,0.0
236,527217.75
918,2442233.52489981
1196,0.0
1342,0.0
2,1, 1, 1, 0,13,30.00,60.00,Sunday
88,527217.75
124,0.0
236,527217.75
918,2413525.6196662795
1196,0.0
1342,0.0
2,1, 1, 1, 0,13, 0.00,60.00,Sunday
89,1054435.5
125,0.0
237,1054435.5
919,4855759.144566089
1197,0.0
1343,0.0
2,1, 1, 1, 0,14, 0.00,30.00,Sunday
88,527217.75
124,0.0
236,527217.75
918,2406727.3578822666
1196,0.0
1342,0.0
2,1, 1, 1, 0,14,30.00,60.00,Sunday
88,527217.75
124,0.0
236,527217.75
918,2399664.3808995026
1196,0.0
1342,0.0
2,1, 1, 1, 0,14, 0.00,60.00,Sunday
89,1054435.5
125,0.0
237,1054435.5
919,4806391.738781769
1197,0.0
1343,0.0
2,1, 1, 1, 0,15, 0.00,30.00,Sunday
88,527217.75
124,0.0
236,527217.75
918,2391515.093316732
1196,0.0
1342,0.0
2,1, 1, 1, 0,15,30.00,60.00,Sunday
88,527217.75
124,0.0
236,527217.75
918,2383210.529780396
1196,0.0
1342,0.0
2,1, 1, 1, 0,15, 0.00,60.00,Sunday
89,1054435.5
125,0.0
237,1054435.5
919,4774725.623097127
1197,0.0
1343,0.0
2,1, 1, 1, 0,16, 0.00,30.00,Sunday
88,527217.75
124,0.0
236,527217.75
918,2374772.6076606039
1196,0.0
1342,0.0
2,1, 1, 1, 0,16,30.00,60.00,Sunday
88,527217.75
124,0.0
236,527217.75
918,2366173.458141767
1196,0.0
1342,0.0
2,1, 1, 1, 0,16, 0.00,60.00,Sunday
89,1054435.5
125,0.0
237,1054435.5
919,4740946.065802371
1197,0.0
1343,0.0
2,1, 1, 1, 0,17, 0.00,30.00,Sunday
88,527217.75
124,0.0
236,527217.75
918,2379235.325305423
1196,0.0
1342,0.0
2,1, 1, 1, 0,17,30.00,60.00,Sunday
88,527217.75
124,0.0
236,527217.75
918,2392135.9173258079
1196,0.0
1342,0.0
2,1, 1, 1, 0,17, 0.00,60.00,Sunday
89,1054435.5
125,0.0
237,1054435.5
919,4771371.2426312309
1197,0.0
1343,0.0
2,1, 1, 1, 0,18, 0.00,30.00,Sunday
88,527217.75
124,0.0
236,527217.75
918,2408283.983013338
1196,0.0
1342,0.0
2,1, 1, 1, 0,18,30.00,60.00,Sunday
88,527217.75
124,0.0
236,527217.75
918,2424347.308126654
1196,0.0
1342,0.0
2,1, 1, 1, 0,18, 0.00,60.00,Sunday
89,1054435.5
125,0.0
237,1054435.5
919,4832631.291139992
1197,0.0
1343,0.0
2,1, 1, 1, 0,19, 0.00,30.00,Sunday
88,738104.85
124,210887.09999999999
236,527217.75
918,2344464.623415554
1196,0.0
1342,0.0
2,1, 1, 1, 0,19,30.00,60.00,Sunday
88,738104.85
124,210887.09999999999
236,527217.75
918,2350584.888504319
1196,0.0
1342,0.0
2,1, 1, 1, 0,19, 0.00,60.00,Sunday
89,1476209.7
125,421774.19999999998
237,1054435.5
919,4695049.511919873
1197,0.0
1343,0.0
2,1, 1, 1, 0,20, 0.00,30.00,Sunday
88,738104.85
124,210887.09999999999
236,527217.75
918,2366859.922062619
1196,0.0
1342,0.0
2,1, 1, 1, 0,20,30.00,60.00,Sunday
88,738104.85
124,210887.09999999999
236,527217.75
918,2383751.591634334
1196,0.0
1342,0.0
2,1, 1, 1, 0,20, 0.00,60.00,Sunday
89,1476209.7
125,421774.19999999998
237,1054435.5
919,4750611.513696954
1197,0.0
1343,0.0
2,1, 1, 1, 0,21, 0.00,30.00,Sunday
88,738104.85
124,210887.09999999999
236,527217.75
918,2396701.8898932926
1196,0.0
1342,0.0
2,1, 1, 1, 0,21,30.00,60.00,Sunday
88,738104.85
124,210887.09999999999
236,527217.75
918,2410054.426242485
1196,0.0
1342,0.0
2,1, 1, 1, 0,21, 0.00,60.00,Sunday
89,1476209.7
125,421774.19999999998
237,1054435.5
919,4806756.316135777
1197,0.0
1343,0.0
2,1, 1, 1, 0,22, 0.00,30.00,Sunday
88,738104.85
124,210887.09999999999
236,527217.75
918,1956861.5542617967
1196,0.0
1342,0.0
2,1, 1, 1, 0,22,30.00,60.00,Sunday
88,738104.85
124,210887.09999999999
236,527217.75
918,1975309.826118755
1196,0.0
1342,0.0
2,1, 1, 1, 0,22, 0.00,60.00,Sunday
89,1476209.7
125,421774.19999999998
237,1054435.5
919,3932171.3803805515
1197,0.0
1343,0.0
2,1, 1, 1, 0,23, 0.00,30.00,Sunday
88,210887.09999999999
124,210887.09999999999
236,0.0
918,1901604.7918918008
1196,0.0
1342,0.0
2,1, 1, 1, 0,23,30.00,60.00,Sunday
88,210887.09999999999
124,210887.09999999999
236,0.0
918,1913022.5644244054
1196,0.0
1342,0.0
2,1, 1, 1, 0,23, 0.00,60.00,Sunday
89,421774.19999999998
125,421774.19999999998
237,0.0
919,3814627.356316206
1197,0.0
1343,0.0
2,1, 1, 1, 0,24, 0.00,30.00,Sunday
88,0.0
124,0.0
236,0.0
918,2009968.6966158008
1196,0.0
1342,0.0
2,1, 1, 1, 0,24,30.00,60.00,Sunday
88,0.0
124,0.0
236,0.0
918,2022057.9661998365
1196,0.0
1342,0.0
2,1, 1, 1, 0,24, 0.00,60.00,Sunday
89,0.0
125,0.0
237,0.0
919,4032026.662815637
1197,0.0
1343,0.0
3,1, 1, 1, 0,Sunday
90,15816532.499999997,0.0, 1,30,738104.85,19,30
126,2108871.0000000006,0.0, 1,30,210887.09999999999,19,30
238,13707661.5,0.0, 1,30,527217.75,10,30
920,108166852.08806895,1901604.7918918008,23,30,2618014.2247783688,10,30
1198,0.0,0.0, 1,30,0.0, 1,30
1344,0.0,0.0, 1,30,0.0, 1,30
2,2, 1, 2, 0, 1, 0.00,30.00,Monday
88,0.0
124,0.0
236,0.0
918,2036786.397612833
1196,0.0
1342,0.0
2,2, 1, 2, 0, 1,30.00,60.00,Monday
88,0.0
124,0.0
236,0.0
918,2050322.7293087946
1196,0.0
1342,0.0
2,2, 1, 2, 0, 1, 0.00,60.00,Monday
89,0.0
125,0.0
237,0.0
919,4087109.1269216279
1197,0.0
1343,0.0
2,2, 1, 2, 0, 2, 0.00,30.00,Monday
88,0.0
124,0.0
236,0.0
918,2059848.6886647419
1196,0.0
1342,0.0
2,2, 1, 2, 0, 2,30.00,60.00,Monday
88,0.0
124,0.0
236,0.0
918,2069222.5940638318
1196,0.0
1342,0.0
2,2, 1, 2, 0, 2, 0.00,60.00,Monday
89,0.0
125,0.0
237,0.0
919,4129071.2827285735
1197,0.0
1343,0.0
2,2, 1, 2, 0, 3, 0.00,30.00,Monday
88,0.0
124,0.0
236,0.0
918,2074557.9199836124
1196,0.0
1342,0.0
2,2, 1, 2, 0, 3,30.00,60.00,Monday
88,0.0
124,0.0
236,0.0
918,2079820.6945577819
1196,0.0
1342,0.0
2,2, 1, 2, 0, 3, 0.00,60.00,Monday
89,0.0
125,0.0
237,0.0
919,4154378.614541394
1197,0.0
1343,0.0
2,2, 1, 2, 0, 4, 0.00,30.00,Monday
88,0.0
124,0.0
236,0.0
918,2089620.8606144223
1196,0.0
1342,0.0
2,2, 1, 2, 0, 4,30.00,60.00,Monday
88,0.0
124,0.0
236,0.0
918,2098673.1383117146
1196,0.0
1342,0.0
2,2, 1, 2, 0, 4, 0.00,60.00,Monday
89,0.0
125,0.0
237,0.0
919,4188293.9989261368
1197,0.0
1343,0.0
2,2, 1, 2, 0, 5, 0.00,30.00,Monday
88,0.0
124,0.0
236,0.0
918,2120425.5356804758
1196,0.0
1342,0.0
2,2, 1, 2, 0, 5,30.00,60.00,Monday
88,0.0
124,0.0
236,0.0
918,2142148.5577600316
1196,0.0
1342,0.0
2,2, 1, 2, 0, 5, 0.00,60.00,Monday
89,0.0
125,0.0
237,0.0
919,4262574.093440507
1197,0.0
1343,0.0
2,2, 1, 2, 0, 6, 0.00,30.00,Monday
88,0.0
124,0.0
236,0.0
918,2163939.668772538
1196,0.0
1342,0.0
2,2, 1, 2, 0, 6,30.00,60.00,Monday
88,0.0
124,0.0
236,0.0
918,2185798.420794802
1196,0.0
1342,0.0
2,2, 1, 2, 0, 6, 0.00,60.00,Monday
89,0.0
125,0.0
237,0.0
919,4349738.08956734
1197,0.0
1343,0.0
2,2, 1, 2, 0, 7, 0.00,30.00,Monday
88,0.0
124,0.0
236,0.0
918,2207729.1100318545
1196,0.0
1342,0.0
2,2, 1, 2, 0, 7,30.00,60.00,Monday
88,0.0
124,0.0
236,0.0
918,2229736.129701652
1196,0.0
1342,0.0
2,2, 1, 2, 0, 7, 0.00,60.00,Monday
89,0.0
125,0.0
237,0.0
919,4437465.239733506
1197,0.0
1343,0.0
2,2, 1, 2, 0, 8, 0.00,30.00,Monday
88,0.0
124,0.0
236,0.0
918,2438264.561137375
1196,0.0
1342,0.0
2,2, 1, 2, 0, 8,30.00,60.00,Monday
88,0.0
124,0.0
236,0.0
918,2411406.194164717
1196,0.0
1342,0.0
2,2, 1, 2, 0, 8, 0.00,60.00,Monday
89,0.0
125,0.0
237,0.0
919,4849670.755302092
1197,0.0
1343,0.0
2,2, 1, 2, 0, 9, 0.00,30.00,Monday
88,0.0
124,0.0
236,0.0
918,2624059.20321835
1196,0.0
1342,0.0
2,2, 1, 2, 0, 9,30.00,60.00,Monday
88,0.0
124,0.0
236,0.0
918,2600498.8419440055
1196,0.0
1342,0.0
2,2, 1, 2, 0, 9, 0.00,60.00,Monday
89,0.0
125,0.0
237,0.0
919,5224558.0451623559
1197,0.0
1343,0.0
2,2, 1, 2, 0,10, 0.00,30.00,Monday
88,527217.75
124,0.0
236,527217.75
918,2425477.0573014866
1196,0.0
1342,0.0
2,2, 1, 2, 0,10,30.00,60.00,Monday
88,527217.75
124,0.0
236,527217.75
918,2394357.802609535
1196,0.0
1342,0.0
2,2, 1, 2, 0,10, 0.00,60.00,Monday
89,1054435.5
125,0.0
237,1054435.5
919,4819834.859911021
1197,0.0
1343,0.0
2,2, 1, 2, 0,11, 0.00,30.00,Monday
88,527217.75
124,0.0
236,527217.75
918,2071421.573599048
1196,0.0
1342,0.0
2,2, 1, 2, 0,11,30.00,60.00,Monday
88,527217.75
124,0.0
236,527217.75
918,1983977.560425376
1196,0.0
1342,0.0
2,2, 1, 2, 0,11, 0.00,60.00,Monday
89,1054435.5
125,0.0
237,1054435.5
919,4055399.134024424
1197,0.0
1343,0.0
2,2, 1, 2, 0,12, 0.00,30.00,Monday
88,527217.75
124,0.0
236,527217.75
918,1891514.1849130379
1196,0.0
1342,0.0
2,2, 1, 2, 0,12,30.00,60.00,Monday
88,527217.75
124,0.0
236,527217.75
918,1800086.9909701432
1196,0.0
1342,0.0
2,2, 1, 2, 0,12, 0.00,60.00,Monday
89,1054435.5
125,0.0
237,1054435.5
919,3691601.175883181
1197,0.0
1343,0.0
2,2, 1, 2, 0,13, 0.00,30.00,Monday
88,527217.75
124,0.0
236,527217.75
918,1713134.5364127046
1196,0.0
1342,0.0
2,2, 1, 2, 0,13,30.00,60.00,Monday
88,527217.75
124,0.0
236,527217.75
918,1626447.2768995115
1196,0.0
1342,0.0
2,2, 1, 2, 0,13, 0.00,60.00,Monday
89,1054435.5
125,0.0
237,1054435.5
919,3339581.8133122159
1197,0.0
1343,0.0
2,2, 1, 2, 0,14, 0.00,30.00,Monday
88,527217.75
124,0.0
236,527217.75
918,1624043.1625626935
1196,0.0
1342,0.0
2,2, 1, 2, 0,14,30.00,60.00,Monday
88,527217.75
124,0.0
236,527217.75
918,1623928.2661872255
1196,0.0
1342,0.0
2,2, 1, 2, 0,14, 0.00,60.00,Monday
89,1054435.5
125,0.0
237,1054435.5
919,3247971.428749919
1197,0.0
1343,0.0
2,2, 1, 2, 0,15, 0.00,30.00,Monday
88,527217.75
124,0.0
236,527217.75
918,1624126.3686539834
1196,0.0
1342,0.0
2,2, 1, 2, 0,15,30.00,60.00,Monday
88,527217.75
124,0.0
236,527217.75
918,1624604.246055073
1196,0.0
1342,0.0
2,2, 1, 2, 0,15, 0.00,60.00,Monday
89,1054435.5
125,0.0
237,1054435.5
919,3248730.6147090566
1197,0.0
1343,0.0
2,2, 1, 2, 0,16, 0.00,30.00,Monday
88,527217.75
124,0.0
236,527217.75
918,1625085.403417782
1196,0.0
1342,0.0
2,2, 1, 2, 0,16,30.00,60.00,Monday
88,527217.75
124,0.0
236,527217.75
918,1627439.8873328223
1196,0.0
1342,0.0
2,2, 1, 2, 0,16, 0.00,60.00,Monday
89,1054435.5
125,0.0
237,1054435.5
919,3252525.290750604
1197,0.0
1343,0.0
2,2, 1, 2, 0,17, 0.00,30.00,Monday
88,527217.75
124,0.0
236,527217.75
918,1719820.432168014
1196,0.0
1342,0.0
2,2, 1, 2, 0,17,30.00,60.00,Monday
88,527217.75
124,0.0
236,527217.75
918,1810671.8017080907
1196,0.0
1342,0.0
2,2, 1, 2, 0,17, 0.00,60.00,Monday
89,1054435.5
125,0.0
237,1054435.5
919,3530492.2338761046
1197,0.0
1343,0.0
2,2, 1, 2, 0,18, 0.00,30.00,Monday
88,527217.75
124,0.0
236,527217.75
918,1961658.6881089842
1196,0.0
1342,0.0
2,2, 1, 2, 0,18,30.00,60.00,Monday
88,527217.75
124,0.0
236,527217.75
918,1994215.4120440833
1196,0.0
1342,0.0
2,2, 1, 2, 0,18, 0.00,60.00,Monday
89,1054435.5
125,0.0
237,1054435.5
919,3955874.100153067
1197,0.0
1343,0.0
2,2, 1, 2, 0,19, 0.00,30.00,Monday
88,738104.85
124,210887.09999999999
236,527217.75
918,2052662.3923244305
1196,0.0
1342,0.0
2,2, 1, 2, 0,19,30.00,60.00,Monday
88,738104.85
124,210887.09999999999
236,527217.75
918,2078133.7986661117
1196,0.0
1342,0.0
2,2, 1, 2, 0,19, 0.00,60.00,Monday
89,1476209.7
125,421774.19999999998
237,1054435.5
919,4130796.190990542
1197,0.0
1343,0.0
2,2, 1, 2, 0,20, 0.00,30.00,Monday
88,738104.85
124,210887.09999999999
236,527217.75
918,2203842.24274606
1196,0.0
1342,0.0
2,2, 1, 2, 0,20,30.00,60.00,Monday
88,738104.85
124,210887.09999999999
236,527217.75
918,2212094.8370991565
1196,0.0
1342,0.0
2,2, 1, 2, 0,20, 0.00,60.00,Monday
89,1476209.7
125,421774.19999999998
237,1054435.5
919,4415937.079845216
1197,0.0
1343,0.0
2,2, 1, 2, 0,21, 0.00,30.00,Monday
88,738104.85
124,210887.09999999999
236,527217.75
918,2339222.4519263457
1196,0.0
1342,0.0
2,2, 1, 2, 0,21,30.00,60.00,Monday
88,738104.85
124,210887.09999999999
236,527217.75
918,2348903.0658776035
1196,0.0
1342,0.0
2,2, 1, 2, 0,21, 0.00,60.00,Monday
89,1476209.7
125,421774.19999999998
237,1054435.5
919,4688125.517803948
1197,0.0
1343,0.0
2,2, 1, 2, 0,22, 0.00,30.00,Monday
88,738104.85
124,210887.09999999999
236,527217.75
918,2359158.2033332779
1196,0.0
1342,0.0
2,2, 1, 2, 0,22,30.00,60.00,Monday
88,738104.85
124,210887.09999999999
236,527217.75
918,2369600.127471752
1196,0.0
1342,0.0
2,2, 1, 2, 0,22, 0.00,60.00,Monday
89,1476209.7
125,421774.19999999998
237,1054435.5
919,4728758.33080503
1197,0.0
1343,0.0
2,2, 1, 2, 0,23, 0.00,30.00,Monday
88,210887.09999999999
124,210887.09999999999
236,0.0
918,2146083.6208356928
1196,0.0
1342,0.0
2,2, 1, 2, 0,23,30.00,60.00,Monday
88,210887.09999999999
124,210887.09999999999
236,0.0
918,2120864.090767038
1196,0.0
1342,0.0
2,2, 1, 2, 0,23, 0.00,60.00,Monday
89,421774.19999999998
125,421774.19999999998
237,0.0
919,4266947.711602731
1197,0.0
1343,0.0
2,2, 1, 2, 0,24, 0.00,30.00,Monday
88,0.0
124,0.0
236,0.0
918,1954164.3490028098
1196,0.0
1342,0.0
2,2, 1, 2, 0,24,30.00,60.00,Monday
88,0.0
124,0.0
236,0.0
918,1938494.532191445
1196,0.0
1342,0.0
2,2, 1, 2, 0,24, 0.00,60.00,Monday
89,0.0
125,0.0
237,0.0
919,3892658.8811942546
1197,0.0
1343,0.0
3,2, 1, 2, 0,Monday
90,15816532.499999997,0.0, 1,30,738104.85,19,30
126,2108871.0000000006,0.0, 1,30,210887.09999999999,19,30
238,13707661.5,0.0, 1,30,527217.75,10,30
920,98948093.60993479,1623928.2661872255,14,60,2624059.20321835, 9,30
1198,0.0,0.0, 1,30,0.0, 1,30
1344,0.0,0.0, 1,30,0.0, 1,30
2,3, 1, 3, 0, 1, 0.00,30.00,Tuesday
88,0.0
124,0.0
236,0.0
918,1799583.616213914
1196,0.0
1342,0.0
2,3, 1, 3, 0, 1,30.00,60.00,Tuesday
88,0.0
124,0.0
236,0.0
918,1778648.96324305
1196,0.0
1342,0.0
2,3, 1, 3, 0, 1, 0.00,60.00,Tuesday
89,0.0
125,0.0
237,0.0
919,3578232.579456964
1197,0.0
1343,0.0
2,3, 1, 3, 0, 2, 0.00,30.00,Tuesday
88,0.0
124,0.0
236,0.0
918,1776130.8580671242
1196,0.0
1342,0.0
2,3, 1, 3, 0, 2,30.00,60.00,Tuesday
88,0.0
124,0.0
236,0.0
918,1773621.5659824284
1196,0.0
1342,0.0
2,3, 1, 3, 0, 2, 0.00,60.00,Tuesday
89,0.0
125,0.0
237,0.0
919,3549752.4240495527
1197,0.0
1343,0.0
2,3, 1, 3, 0, 3, 0.00,30.00,Tuesday
88,0.0
124,0.0
236,0.0
918,1771833.9669678587
1196,0.0
1342,0.0
2,3, 1, 3, 0, 3,30.00,60.00,Tuesday
88,0.0
124,0.0
236,0.0
918,1770022.5564809596
1196,0.0
1342,0.0
2,3, 1, 3, 0, 3, 0.00,60.00,Tuesday
89,0.0
125,0.0
237,0.0
919,3541856.5234488185
1197,0.0
1343,0.0
2,3, 1, 3, 0, 4, 0.00,30.00,Tuesday
88,0.0
124,0.0
236,0.0
918,1767460.3848728613
1196,0.0
1342,0.0
2,3, 1, 3, 0, 4,30.00,60.00,Tuesday
88,0.0
124,0.0
236,0.0
918,1764851.4919676716
1196,0.0
1342,0.0
2,3, 1, 3, 0, 4, 0.00,60.00,Tuesday
89,0.0
125,0.0
237,0.0
919,3532311.8768405329
1197,0.0
1343,0.0
2,3, 1, 3, 0, 5, 0.00,30.00,Tuesday
88,0.0
124,0.0
236,0.0
918,1750314.1640912253
1196,0.0
1342,0.0
2,3, 1, 3, 0, 5,30.00,60.00,Tuesday
88,0.0
124,0.0
236,0.0
918,1735673.0748819039
1196,0.0
1342,0.0
2,3, 1, 3, 0, 5, 0.00,60.00,Tuesday
89,0.0
125,0.0
237,0.0
919,3485987.238973129
1197,0.0
1343,0.0
2,3, 1, 3, 0, 6, 0.00,30.00,Tuesday
88,0.0
124,0.0
236,0.0
918,1724412.7175803353
1196,0.0
1342,0.0
2,3, 1, 3, 0, 6,30.00,60.00,Tuesday
88,0.0
124,0.0
236,0.0
918,1713186.013252501
1196,0.0
1342,0.0
2,3, 1, 3, 0, 6, 0.00,60.00,Tuesday
89,0.0
125,0.0
237,0.0
919,3437598.730832836
1197,0.0
1343,0.0
2,3, 1, 3, 0, 7, 0.00,30.00,Tuesday
88,0.0
124,0.0
236,0.0
918,1698005.3362678299
1196,0.0
1342,0.0
2,3, 1, 3, 0, 7,30.00,60.00,Tuesday
88,0.0
124,0.0
236,0.0
918,1682832.9221980982
1196,0.0
1342,0.0
2,3, 1, 3, 0, 7, 0.00,60.00,Tuesday
89,0.0
125,0.0
237,0.0
919,3380838.258465928
1197,0.0
1343,0.0
2,3, 1, 3, 0, 8, 0.00,30.00,Tuesday
88,0.0
124,0.0
236,0.0
918,1874769.592976498
1196,0.0
1342,0.0
2,3, 1, 3, 0, 8,30.00,60.00,Tuesday
88,0.0
124,0.0
236,0.0
918,1831142.2431123015
1196,0.0
1342,0.0
2,3, 1, 3, 0, 8, 0.00,60.00,Tuesday
89,0.0
125,0.0
237,0.0
919,3705911.8360887996
1197,0.0
1343,0.0
2,3, 1, 3, 0, 9, 0.00,30.00,Tuesday
88,0.0
124,0.0
236,0.0
918,2027070.315927816
1196,0.0
1342,0.0
2,3, 1, 3, 0, 9,30.00,60.00,Tuesday
88,0.0
124,0.0
236,0.0
918,1987172.5328297748
1196,0.0
1342,0.0
2,3, 1, 3, 0, 9, 0.00,60.00,Tuesday
89,0.0
125,0.0
237,0.0
919,4014242.848757591
1197,0.0
1343,0.0
2,3, 1, 3, 0,10, 0.00,30.00,Tuesday
88,527217.75
124,0.0
236,527217.75
918,1752733.2315312196
1196,0.0
1342,0.0
2,3, 1, 3, 0,10,30.00,60.00,Tuesday
88,527217.75
124,0.0
236,527217.75
918,1705640.445219519
1196,0.0
1342,0.0
2,3, 1, 3, 0,10, 0.00,60.00,Tuesday
89,1054435.5
125,0.0
237,1054435.5
919,3458373.6767507388
1197,0.0
1343,0.0
2,3, 1, 3, 0,11, 0.00,30.00,Tuesday
88,527217.75
124,0.0
236,527217.75
918,1434502.4485434769
1196,0.0
1342,0.0
2,3, 1, 3, 0,11,30.00,60.00,Tuesday
88,527217.75
124,0.0
236,527217.75
918,1398874.3149257685
1196,0.0
1342,0.0
2,3, 1, 3, 0,11, 0.00,60.00,Tuesday
89,1054435.5
125,0.0
237,1054435.5
919,2833376.7634692455
1197,0.0
1343,0.0
2,3, 1, 3, 0,12, 0.00,30.00,Tuesday
88,527217.75
124,0.0
236,527217.75
918,1362854.781774978
1196,0.0
1342,0.0
2,3, 1, 3, 0,12,30.00,60.00,Tuesday
88,527217.75
124,0.0
236,527217.75
918,1326783.0153448997
1196,0.0
1342,0.0
2,3, 1, 3, 0,12, 0.00,60.00,Tuesday
89,1054435.5
125,0.0
237,1054435.5
919,2689637.7971198775
1197,0.0
1343,0.0
2,3, 1, 3, 0,13, 0.00,30.00,Tuesday
88,527217.75
124,0.0
236,527217.75
918,1331416.307171525
1196,0.0
1342,0.0
2,3, 1, 3, 0,13,30.00,60.00,Tuesday
88,527217.75
124,0.0
236,527217.75
918,1295250.6035821415
1196,0.0
1342,0.0
2,3, 1, 3, 0,13, 0.00,60.00,Tuesday
89,1054435.5
125,0.0
237,1054435.5
919,2626666.9107536666
1197,0.0
1343,0.0
2,3, 1, 3, 0,14, 0.00,30.00,Tuesday
88,527217.75
124,0.0
236,527217.75
918,1328757.3437721022
1196,0.0
1342,0.0
2,3, 1, 3, 0,14,30.00,60.00,Tuesday
88,527217.75
124,0.0
236,527217.75
918,1326486.8595936297
1196,0.0
1342,0.0
2,3, 1, 3, 0,14, 0.00,60.00,Tuesday
89,1054435.5
125,0.0
237,1054435.5
919,2655244.203365732
1197,0.0
1343,0.0
2,3, 1, 3, 0,15, 0.00,30.00,Tuesday
88,527217.75
124,0.0
236,527217.75
918,1362182.369594794
1196,0.0
1342,0.0
2,3, 1, 3, 0,15,30.00,60.00,Tuesday
88,527217.75
124,0.0
236,527217.75
918,1398095.3169468898
1196,0.0
1342,0.0
2,3, 1, 3, 0,15, 0.00,60.00,Tuesday
89,1054435.5
125,0.0
237,1054435.5
919,2760277.686541684
1197,0.0
1343,0.0
2,3, 1, 3, 0,16, 0.00,30.00,Tuesday
88,527217.75
124,0.0
236,527217.75
918,1463520.1624915393
1196,0.0
1342,0.0
2,3, 1, 3, 0,16,30.00,60.00,Tuesday
88,527217.75
124,0.0
236,527217.75
918,1498038.7017861694
1196,0.0
1342,0.0
2,3, 1, 3, 0,16, 0.00,60.00,Tuesday
89,1054435.5
125,0.0
237,1054435.5
919,2961558.8642777085
1197,0.0
1343,0.0
2,3, 1, 3, 0,17, 0.00,30.00,Tuesday
88,527217.75
124,0.0
236,527217.75
918,1506906.5326938439
1196,0.0
1342,0.0
2,3, 1, 3, 0,17,30.00,60.00,Tuesday
88,527217.75
124,0.0
236,527217.75
918,1483634.6029474037
1196,0.0
1342,0.0
2,3, 1, 3, 0,17, 0.00,60.00,Tuesday
89,1054435.5
125,0.0
237,1054435.5
919,2990541.1356412477
1197,0.0
1343,0.0
2,3, 1, 3, 0,18, 0.00,30.00,Tuesday
88,527217.75
124,0.0
236,527217.75
918,1603970.1747294309
1196,0.0
1342,0.0
2,3, 1, 3, 0,18,30.00,60.00,Tuesday
88,527217.75
124,0.0
236,527217.75
918,1606237.420290792
1196,0.0
1342,0.0
2,3, 1, 3, 0,18, 0.00,60.00,Tuesday
89,1054435.5
125,0.0
237,1054435.5
919,3210207.5950202227
1197,0.0
1343,0.0
2,3, 1, 3, 0,19, 0.00,30.00,Tuesday
88,738104.85
124,210887.09999999999
236,527217.75
918,1638351.5592960558
1196,0.0
1342,0.0
2,3, 1, 3, 0,19,30.00,60.00,Tuesday
88,738104.85
124,210887.09999999999
236,527217.75
918,1637633.8584127373
1196,0.0
1342,0.0
2,3, 1, 3, 0,19, 0.00,60.00,Tuesday
89,1476209.7
125,421774.19999999998
237,1054435.5
919,3275985.4177087929
1197,0.0
1343,0.0
2,3, 1, 3, 0,20, 0.00,30.00,Tuesday
88,738104.85
124,210887.09999999999
236,527217.75
918,1767385.9337549159
1196,0.0
1342,0.0
2,3, 1, 3, 0,20,30.00,60.00,Tuesday
88,738104.85
124,210887.09999999999
236,527217.75
918,1779745.6039177338
1196,0.0
1342,0.0
2,3, 1, 3, 0,20, 0.00,60.00,Tuesday
89,1476209.7
125,421774.19999999998
237,1054435.5
919,3547131.5376726498
1197,0.0
1343,0.0
2,3, 1, 3, 0,21, 0.00,30.00,Tuesday
88,738104.85
124,210887.09999999999
236,527217.75
918,1906162.141240504
1196,0.0
1342,0.0
2,3, 1, 3, 0,21,30.00,60.00,Tuesday
88,738104.85
124,210887.09999999999
236,527217.75
918,1915142.9595805226
1196,0.0
1342,0.0
2,3, 1, 3, 0,21, 0.00,60.00,Tuesday
89,1476209.7
125,421774.19999999998
237,1054435.5
919,3821305.1008210268
1197,0.0
1343,0.0
2,3, 1, 3, 0,22, 0.00,30.00,Tuesday
88,738104.85
124,210887.09999999999
236,527217.75
918,1928170.6998145818
1196,0.0
1342,0.0
2,3, 1, 3, 0,22,30.00,60.00,Tuesday
88,738104.85
124,210887.09999999999
236,527217.75
918,1941436.041384614
1196,0.0
1342,0.0
2,3, 1, 3, 0,22, 0.00,60.00,Tuesday
89,1476209.7
125,421774.19999999998
237,1054435.5
919,3869606.741199196
1197,0.0
1343,0.0
2,3, 1, 3, 0,23, 0.00,30.00,Tuesday
88,210887.09999999999
124,210887.09999999999
236,0.0
918,1777754.4249333493
1196,0.0
1342,0.0
2,3, 1, 3, 0,23,30.00,60.00,Tuesday
88,210887.09999999999
124,210887.09999999999
236,0.0
918,1782243.182811546
1196,0.0
1342,0.0
2,3, 1, 3, 0,23, 0.00,60.00,Tuesday
89,421774.19999999998
125,421774.19999999998
237,0.0
919,3559997.607744895
1197,0.0
1343,0.0
2,3, 1, 3, 0,24, 0.00,30.00,Tuesday
88,0.0
124,0.0
236,0.0
918,1642190.629144958
1196,0.0
1342,0.0
2,3, 1, 3, 0,24,30.00,60.00,Tuesday
88,0.0
124,0.0
236,0.0
918,1653047.582239009
1196,0.0
1342,0.0
2,3, 1, 3, 0,24, 0.00,60.00,Tuesday
89,0.0
125,0.0
237,0.0
919,3295238.2113839669
1197,0.0
1343,0.0
3,3, 1, 3, 0,Tuesday
90,15816532.499999997,0.0, 1,30,738104.85,19,30
126,2108871.0000000006,0.0, 1,30,210887.09999999999,19,30
238,13707661.5,0.0, 1,30,527217.75,10,30
920,79781881.56638476,1295250.6035821415,13,60,2027070.315927816, 9,30
1198,0.0,0.0, 1,30,0.0, 1,30
1344,0.0,0.0, 1,30,0.0, 1,30
2,4, 1, 4, 0, 1, 0.00,30.00,Wednesday
88,0.0
124,0.0
236,0.0
918,1617865.662123884
1196,0.0
1342,0.0
2,4, 1, 4, 0, 1,30.00,60.00,Wednesday
88,0.0
124,0.0
236,0.0
918,1627781.569898874
1196,0.0
1342,0.0
2,4, 1, 4, 0, 1, 0.00,60.00,Wednesday
89,0.0
125,0.0
237,0.0
919,3245647.232022758
1197,0.0
1343,0.0
2,4, 1, 4, 0, 2, 0.00,30.00,Wednesday
88,0.0
124,0.0
236,0.0
918,1652998.6270067995
1196,0.0
1342,0.0
2,4, 1, 4, 0, 2,30.00,60.00,Wednesday
88,0.0
124,0.0
236,0.0
918,1601131.4613308008
1196,0.0
1342,0.0
2,4, 1, 4, 0, 2, 0.00,60.00,Wednesday
89,0.0
125,0.0
237,0.0
919,3254130.0883376
1197,0.0
1343,0.0
2,4, 1, 4, 0, 3, 0.00,30.00,Wednesday
88,0.0
124,0.0
236,0.0
918,1621441.4292157968
1196,0.0
1342,0.0
2,4, 1, 4, 0, 3,30.00,60.00,Wednesday
88,0.0
124,0.0
236,0.0
918,1641279.700484726
1196,0.0
1342,0.0
2,4, 1, 4, 0, 3, 0.00,60.00,Wednesday
89,0.0
125,0.0
237,0.0
919,3262721.129700523
1197,0.0
1343,0.0
2,4, 1, 4, 0, 4, 0.00,30.00,Wednesday
88,0.0
124,0.0
236,0.0
918,1664404.912108714
1196,0.0
1342,0.0
2,4, 1, 4, 0, 4,30.00,60.00,Wednesday
88,0.0
124,0.0
236,0.0
918,1687721.0912333565
1196,0.0
1342,0.0
2,4, 1, 4, 0, 4, 0.00,60.00,Wednesday
89,0.0
125,0.0
237,0.0
919,3352126.0033420708
1197,0.0
1343,0.0
2,4, 1, 4, 0, 5, 0.00,30.00,Wednesday
88,0.0
124,0.0
236,0.0
918,1708413.1704711279
1196,0.0
1342,0.0
2,4, 1, 4, 0, 5,30.00,60.00,Wednesday
88,0.0
124,0.0
236,0.0
918,1729187.574892321
1196,0.0
1342,0.0
2,4, 1, 4, 0, 5, 0.00,60.00,Wednesday
89,0.0
125,0.0
237,0.0
919,3437600.7453634489
1197,0.0
1343,0.0
2,4, 1, 4, 0, 6, 0.00,30.00,Wednesday
88,0.0
124,0.0
236,0.0
918,1746791.5198487188
1196,0.0
1342,0.0
2,4, 1, 4, 0, 6,30.00,60.00,Wednesday
88,0.0
124,0.0
236,0.0
918,1764511.327348518
1196,0.0
1342,0.0
2,4, 1, 4, 0, 6, 0.00,60.00,Wednesday
89,0.0
125,0.0
237,0.0
919,3511302.8471972367
1197,0.0
1343,0.0
2,4, 1, 4, 0, 7, 0.00,30.00,Wednesday
88,0.0
124,0.0
236,0.0
918,1785649.5586452294
1196,0.0
1342,0.0
2,4, 1, 4, 0, 7,30.00,60.00,Wednesday
88,0.0
124,0.0
236,0.0
918,1806872.7644652208
1196,0.0
1342,0.0
2,4, 1, 4, 0, 7, 0.00,60.00,Wednesday
89,0.0
125,0.0
237,0.0
919,3592522.32311045
1197,0.0
1343,0.0
2,4, 1, 4, 0, 8, 0.00,30.00,Wednesday
88,0.0
124,0.0
236,0.0
918,2025155.5140401966
1196,0.0
1342,0.0
2,4, 1, 4, 0, 8,30.00,60.00,Wednesday
88,0.0
124,0.0
236,0.0
918,2007744.9709927259
1196,0.0
1342,0.0
2,4, 1, 4, 0, 8, 0.00,60.00,Wednesday
89,0.0
125,0.0
237,0.0
919,4032900.4850329228
1197,0.0
1343,0.0
2,4, 1, 4, 0, 9, 0.00,30.00,Wednesday
88,0.0
124,0.0
236,0.0
918,2225767.0018554974
1196,0.0
1342,0.0
2,4, 1, 4, 0, 9,30.00,60.00,Wednesday
88,0.0
124,0.0
236,0.0