Program Version,EnergyPlus, Version 9.0.1-bb7ca4f0da, YMD=2020.12.25 18:57
1,5,Environment Title[],Latitude[deg],Longitude[deg],Time Zone[],Elevation[m]
2,8,Day of Simulation[],Month[],Day of Month[],DST Indicator[1=yes 0=no],Hour[],StartMinute[],EndMinute[],DayType
3,5,Cumulative Day of Simulation[],Month[],Day of Month[],DST Indicator[1=yes 0=no],DayType  ! When Daily Report Variables Requested
4,2,Cumulative Days of Simulation[],Month[]  ! When Monthly Report Variables Requested
5,1,Cumulative Days of Simulation[] ! When Run Period Report Variables Requested
6,1,Calendar Year of Simulation[] ! When Annual Report Variables Requested
7,1,Environment,Site Outdoor Air Drybulb Temperature [C] !TimeStep
8,1,Environment,Site Outdoor Air Drybulb Temperature [C] !Hourly
9,7,Environment,Site Outdoor Air Drybulb Temperature [C] !Daily [Value,Min,Hour,Minute,Max,Hour,Minute]
10,9,Environment,Site Outdoor Air Drybulb Temperature [C] !Monthly [Value,Min,Day,Hour,Minute,Max,Day,Hour,Minute]
11,11,Environment,Site Outdoor Air Drybulb Temperature [C] !RunPeriod [Value,Min,Month,Day,Hour,Minute,Max,Month,Day,Hour,Minute]
12,1,Environment,Site Outdoor Air Dewpoint Temperature [C] !TimeStep
13,1,Environment,Site Outdoor Air Dewpoint Temperature [C] !Hourly
14,7,Environment,Site Outdoor Air Dewpoint Temperature [C] !Daily [Value,Min,Hour,Minute,Max,Hour,Minute]
15,9,Environment,Site Outdoor Air Dewpoint Temperature [C] !Monthly [Value,Min,Day,Hour,Minute,Max,Day,Hour,Minute]
16,11,Environment,Site Outdoor Air Dewpoint Temperature [C] !RunPeriod [Value,Min,Month,Day,Hour,Minute,Max,Month,Day,Hour,Minute]
17,1,Environment,Site Outdoor Air Barometric Pressure [Pa] !TimeStep
18,1,Environment,Site Outdoor Air Barometric Pressure [Pa] !Hourly
19,7,Environment,Site Outdoor Air Barometric Pressure [Pa] !Daily [Value,Min,Hour,Minute,Max,Hour,Minute]
20,9,Environment,Site Outdoor Air Barometric Pressure [Pa] !Monthly [Value,Min,Day,Hour,Minute,Max,Day,Hour,Minute]
21,11,Environment,Site Outdoor Air Barometric Pressure [Pa] !RunPeriod [Value,Min,Month,Day,Hour,Minute,Max,Month,Day,Hour,Minute]
22,1,Environment,Site Wind Speed [m/s] !TimeStep
23,1,Environment,Site Wind Speed [m/s] !Hourly
24,7,Environment,Site Wind Speed [m/s] !Daily [Value,Min,Hour,Minute,Max,Hour,Minute]
25,9,Environment,Site Wind Speed [m/s] !Monthly [Value,Min,Day,Hour,Minute,Max,Day,Hour,Minute]
26,11,Environment,Site Wind Speed [m/s] !RunPeriod [Value,Min,Month,Day,Hour,Minute,Max,Month,Day,Hour,Minute]
27,1,Environment,Site Wind Direction [deg] !TimeStep
28,1,Environment,Site Wind Direction [deg] !Hourly
29,7,Environment,Site Wind Direction [deg] !Daily [Value,Min,Hour,Minute,Max,Hour,Minute]
30,9,Environment,Site Wind Direction [deg] !Monthly [Value,Min,Day,Hour,Minute,Max,Day,Hour,Minute]
31,11,Environment,Site Wind Direction [deg] !RunPeriod [Value,Min,Month,Day,Hour,Minute,Max,Month,Day,Hour,Minute]
32,1,Environment,Site Diffuse Solar Radiation Rate per Area [W/m2] !TimeStep
33,1,Environment,Site Diffuse Solar Radiation Rate per Area [W/m2] !Hourly
34,7,Environment,Site Diffuse Solar Radiation Rate per Area [W/m2] !Daily [Value,Min,Hour,Minute,Max,Hour,Minute]
35,9,Environment,Site Diffuse Solar Radiation Rate per Area [W/m2] !Monthly [Value,Min,Day,Hour,Minute,Max,Day,Hour,Minute]
36,11,Environment,Site Diffuse Solar Radiation Rate per Area [W/m2] !RunPeriod [Value,Min,Month,Day,Hour,Minute,Max,Month,Day,Hour,Minute]
37,1,Environment,Site Direct Solar Radiation Rate per Area [W/m2] !TimeStep
38,1,Environment,Site Direct Solar Radiation Rate per Area [W/m2] !Hourly
39,7,Environment,Site Direct Solar Radiation Rate per Area [W/m2] !Daily [Value,Min,Hour,Minute,Max,Hour,Minute]
40,9,Environment,Site Direct Solar Radiation Rate per Area [W/m2] !Monthly [Value,Min,Day,Hour,Minute,Max,Day,Hour,Minute]
41,11,Environment,Site Direct Solar Radiation Rate per Area [W/m2] !RunPeriod [Value,Min,Month,Day,Hour,Minute,Max,Month,Day,Hour,Minute]
42,1,Environment,Site Solar Azimuth Angle [deg] !TimeStep
43,1,Environment,Site Solar Azimuth Angle [deg] !Hourly
44,7,Environment,Site Solar Azimuth Angle [deg] !Daily [Value,Min,Hour,Minute,Max,Hour,Minute]
45,9,Environment,Site Solar Azimuth Angle [deg] !Monthly [Value,Min,Day,Hour,Minute,Max,Day,Hour,Minute]
46,11,Environment,Site Solar Azimuth Angle [deg] !RunPeriod [Value,Min,Month,Day,Hour,Minute,Max,Month,Day,Hour,Minute]
47,1,Environment,Site Solar Altitude Angle [deg] !TimeStep
48,1,Environment,Site Solar Altitude Angle [deg] !Hourly
49,7,Environment,Site Solar Altitude Angle [deg] !Daily [Value,Min,Hour,Minute,Max,Hour,Minute]
50,9,Environment,Site Solar Altitude Angle [deg] !Monthly [Value,Min,Day,Hour,Minute,Max,Day,Hour,Minute]
51,11,Environment,Site Solar Altitude Angle [deg] !RunPeriod [Value,Min,Month,Day,Hour,Minute,Max,Month,Day,Hour,Minute]
52,1,BLOCK1:ZONE3,Zone Total Internal Latent Gain Energy [J] !TimeStep
53,1,BLOCK1:ZONE3,Zone Total Internal Latent Gain Energy [J] !Hourly
54,7,BLOCK1:ZONE3,Zone Total Internal Latent Gain Energy [J] !Daily [Value,Min,Hour,Minute,Max,Hour,Minute]
55,9,BLOCK1:ZONE3,Zone Total Internal Latent Gain Energy [J] !Monthly [Value,Min,Day,Hour,Minute,Max,Day,Hour,Minute]
56,11,BLOCK1:ZONE3,Zone Total Internal Latent Gain Energy [J] !RunPeriod [Value,Min,Month,Day,Hour,Minute,Max,Month,Day,Hour,Minute]
57,1,BLOCK1:ZONE1,Zone Total Internal Latent Gain Energy [J] !TimeStep
58,1,BLOCK1:ZONE1,Zone Total Internal Latent Gain Energy [J] !Hourly
59,7,BLOCK1:ZONE1,Zone Total Internal Latent Gain Energy [J] !Daily [Value,Min,Hour,Minute,Max,Hour,Minute]
60,9,BLOCK1:ZONE1,Zone Total Internal Latent Gain Energy [J] !Monthly [Value,Min,Day,Hour,Minute,Max,Day,Hour,Minute]
61,11,BLOCK1:ZONE1,Zone Total Internal Latent Gain Energy [J] !RunPeriod [Value,Min,Month,Day,Hour,Minute,Max,Month,Day,Hour,Minute]
62,1,BLOCK1:ZONE2,Zone Total Internal Latent Gain Energy [J] !TimeStep
63,1,BLOCK1:ZONE2,Zone Total Internal Latent Gain Energy [J] !Hourly
64,7,BLOCK1:ZONE2,Zone Total Internal Latent Gain Energy [J] !Daily [Value,Min,Hour,Minute,Max,Hour,Minute]
65,9,BLOCK1:ZONE2,Zone Total Internal Latent Gain Energy [J] !Monthly [Value,Min,Day,Hour,Minute,Max,Day,Hour,Minute]
66,11,BLOCK1:ZONE2,Zone Total Internal Latent Gain Energy [J] !RunPeriod [Value,Min,Month,Day,Hour,Minute,Max,Month,Day,Hour,Minute]
67,1,BLOCK1:ZONE3,Zone People Sensible Heating Rate [W] !TimeStep
68,1,BLOCK1:ZONE3,Zone People Sensible Heating Rate [W] !Hourly
69,7,BLOCK1:ZONE3,Zone People Sensible Heating Rate [W] !Daily [Value,Min,Hour,Minute,Max,Hour,Minute]
70,9,BLOCK1:ZONE3,Zone People Sensible Heating Rate [W] !Monthly [Value,Min,Day,Hour,Minute,Max,Day,Hour,Minute]
71,11,BLOCK1:ZONE3,Zone People Sensible Heating Rate [W] !RunPeriod [Value,Min,Month,Day,Hour,Minute,Max,Month,Day,Hour,Minute]
72,1,BLOCK1:ZONE1,Zone People Sensible Heating Rate [W] !TimeStep
73,1,BLOCK1:ZONE1,Zone People Sensible Heating Rate [W] !Hourly
74,7,BLOCK1:ZONE1,Zone People Sensible Heating Rate [W] !Daily [Value,Min,Hour,Minute,Max,Hour,Minute]
75,9,BLOCK1:ZONE1,Zone People Sensible Heating Rate [W] !Monthly [Value,Min,Day,Hour,Minute,Max,Day,Hour,Minute]
76,11,BLOCK1:ZONE1,Zone People Sensible Heating Rate [W] !RunPeriod [Value,Min,Month,Day,Hour,Minute,Max,Month,Day,Hour,Minute]
77,1,BLOCK1:ZONE2,Zone People Sensible Heating Rate [W] !TimeStep
78,1,BLOCK1:ZONE2,Zone People Sensible Heating Rate [W] !Hourly
79,7,BLOCK1:ZONE2,Zone People Sensible Heating Rate [W] !Daily [Value,Min,Hour,Minute,Max,Hour,Minute]
80,9,BLOCK1:ZONE2,Zone People Sensible Heating Rate [W] !Monthly [Value,Min,Day,Hour,Minute,Max,Day,Hour,Minute]
81,11,BLOCK1:ZONE2,Zone People Sensible Heating Rate [W] !RunPeriod [Value,Min,Month,Day,Hour,Minute,Max,Month,Day,Hour,Minute]
82,1,BLOCK1:ZONE3,Lights Total Heating Rate [W] !TimeStep
83,1,BLOCK1:ZONE3,Lights Total Heating Rate [W] !Hourly
84,7,BLOCK1:ZONE3,Lights Total Heating Rate [W] !Daily [Value,Min,Hour,Minute,Max,Hour,Minute]
85,9,BLOCK1:ZONE3,Lights Total Heating Rate [W] !Monthly [Value,Min,Day,Hour,Minute,Max,Day,Hour,Minute]
86,11,BLOCK1:ZONE3,Lights Total Heating Rate [W] !RunPeriod [Value,Min,Month,Day,Hour,Minute,Max,Month,Day,Hour,Minute]
160,1,BLOCK1:ZONE3,Zone Lights Electric Power [W] !TimeStep
161,1,BLOCK1:ZONE3,Zone Lights Electric Power [W] !Hourly
162,7,BLOCK1:ZONE3,Zone Lights Electric Power [W] !Daily [Value,Min,Hour,Minute,Max,Hour,Minute]
163,9,BLOCK1:ZONE3,Zone Lights Electric Power [W] !Monthly [Value,Min,Day,Hour,Minute,Max,Day,Hour,Minute]
164,11,BLOCK1:ZONE3,Zone Lights Electric Power [W] !RunPeriod [Value,Min,Month,Day,Hour,Minute,Max,Month,Day,Hour,Minute]
165,1,BLOCK1:ZONE1,Lights Total Heating Rate [W] !TimeStep
166,1,BLOCK1:ZONE1,Lights Total Heating Rate [W] !Hourly
167,7,BLOCK1:ZONE1,Lights Total Heating Rate [W] !Daily [Value,Min,Hour,Minute,Max,Hour,Minute]
168,9,BLOCK1:ZONE1,Lights Total Heating Rate [W] !Monthly [Value,Min,Day,Hour,Minute,Max,Day,Hour,Minute]
169,11,BLOCK1:ZONE1,Lights Total Heating Rate [W] !RunPeriod [Value,Min,Month,Day,Hour,Minute,Max,Month,Day,Hour,Minute]
195,1,BLOCK1:ZONE1,Zone Lights Electric Power [W] !TimeStep
196,1,BLOCK1:ZONE1,Zone Lights Electric Power [W] !Hourly
197,7,BLOCK1:ZONE1,Zone Lights Electric Power [W] !Daily [Value,Min,Hour,Minute,Max,Hour,Minute]
198,9,BLOCK1:ZONE1,Zone Lights Electric Power [W] !Monthly [Value,Min,Day,Hour,Minute,Max,Day,Hour,Minute]
199,11,BLOCK1:ZONE1,Zone Lights Electric Power [W] !RunPeriod [Value,Min,Month,Day,Hour,Minute,Max,Month,Day,Hour,Minute]
200,1,BLOCK1:ZONE2,Lights Total Heating Rate [W] !TimeStep
201,1,BLOCK1:ZONE2,Lights Total Heating Rate [W] !Hourly
202,7,BLOCK1:ZONE2,Lights Total Heating Rate [W] !Daily [Value,Min,Hour,Minute,Max,Hour,Minute]
203,9,BLOCK1:ZONE2,Lights Total Heating Rate [W] !Monthly [Value,Min,Day,Hour,Minute,Max,Day,Hour,Minute]
204,11,BLOCK1:ZONE2,Lights Total Heating Rate [W] !RunPeriod [Value,Min,Month,Day,Hour,Minute,Max,Month,Day,Hour,Minute]
230,1,BLOCK1:ZONE2,Zone Lights Electric Power [W] !TimeStep
231,1,BLOCK1:ZONE2,Zone Lights Electric Power [W] !Hourly
232,7,BLOCK1:ZONE2,Zone Lights Electric Power [W] !Daily [Value,Min,Hour,Minute,Max,Hour,Minute]
233,9,BLOCK1:ZONE2,Zone Lights Electric Power [W] !Monthly [Value,Min,Day,Hour,Minute,Max,Day,Hour,Minute]
234,11,BLOCK1:ZONE2,Zone Lights Electric Power [W] !RunPeriod [Value,Min,Month,Day,Hour,Minute,Max,Month,Day,Hour,Minute]
272,1,BLOCK1:ZONE3 PUMP ETC,Other Equipment Total Heating Rate [W] !TimeStep
273,1,BLOCK1:ZONE3 PUMP ETC,Other Equipment Total Heating Rate [W] !Hourly
274,7,BLOCK1:ZONE3 PUMP ETC,Other Equipment Total Heating Rate [W] !Daily [Value,Min,Hour,Minute,Max,Hour,Minute]
275,9,BLOCK1:ZONE3 PUMP ETC,Other Equipment Total Heating Rate [W] !Monthly [Value,Min,Day,Hour,Minute,Max,Day,Hour,Minute]
276,11,BLOCK1:ZONE3 PUMP ETC,Other Equipment Total Heating Rate [W] !RunPeriod [Value,Min,Month,Day,Hour,Minute,Max,Month,Day,Hour,Minute]
277,1,BLOCK1:ZONE3,Zone Other Equipment Total Heating Rate [W] !TimeStep
278,1,BLOCK1:ZONE3,Zone Other Equipment Total Heating Rate [W] !Hourly
279,7,BLOCK1:ZONE3,Zone Other Equipment Total Heating Rate [W] !Daily [Value,Min,Hour,Minute,Max,Hour,Minute]
280,9,BLOCK1:ZONE3,Zone Other Equipment Total Heating Rate [W] !Monthly [Value,Min,Day,Hour,Minute,Max,Day,Hour,Minute]
281,11,BLOCK1:ZONE3,Zone Other Equipment Total Heating Rate [W] !RunPeriod [Value,Min,Month,Day,Hour,Minute,Max,Month,Day,Hour,Minute]
307,1,BLOCK1:ZONE1 PUMP ETC,Other Equipment Total Heating Rate [W] !TimeStep
308,1,BLOCK1:ZONE1 PUMP ETC,Other Equipment Total Heating Rate [W] !Hourly
309,7,BLOCK1:ZONE1 PUMP ETC,Other Equipment Total Heating Rate [W] !Daily [Value,Min,Hour,Minute,Max,Hour,Minute]
310,9,BLOCK1:ZONE1 PUMP ETC,Other Equipment Total Heating Rate [W] !Monthly [Value,Min,Day,Hour,Minute,Max,Day,Hour,Minute]
311,11,BLOCK1:ZONE1 PUMP ETC,Other Equipment Total Heating Rate [W] !RunPeriod [Value,Min,Month,Day,Hour,Minute,Max,Month,Day,Hour,Minute]
312,1,BLOCK1:ZONE1,Zone Other Equipment Total Heating Rate [W] !TimeStep
313,1,BLOCK1:ZONE1,Zone Other Equipment Total Heating Rate [W] !Hourly
314,7,BLOCK1:ZONE1,Zone Other Equipment Total Heating Rate [W] !Daily [Value,Min,Hour,Minute,Max,Hour,Minute]
315,9,BLOCK1:ZONE1,Zone Other Equipment Total Heating Rate [W] !Monthly [Value,Min,Day,Hour,Minute,Max,Day,Hour,Minute]
316,11,BLOCK1:ZONE1,Zone Other Equipment Total Heating Rate [W] !RunPeriod [Value,Min,Month,Day,Hour,Minute,Max,Month,Day,Hour,Minute]
342,1,BLOCK1:ZONE2 PUMP ETC,Other Equipment Total Heating Rate [W] !TimeStep
343,1,BLOCK1:ZONE2 PUMP ETC,Other Equipment Total Heating Rate [W] !Hourly
344,7,BLOCK1:ZONE2 PUMP ETC,Other Equipment Total Heating Rate [W] !Daily [Value,Min,Hour,Minute,Max,Hour,Minute]
345,9,BLOCK1:ZONE2 PUMP ETC,Other Equipment Total Heating Rate [W] !Monthly [Value,Min,Day,Hour,Minute,Max,Day,Hour,Minute]
346,11,BLOCK1:ZONE2 PUMP ETC,Other Equipment Total Heating Rate [W] !RunPeriod [Value,Min,Month,Day,Hour,Minute,Max,Month,Day,Hour,Minute]
347,1,BLOCK1:ZONE2,Zone Other Equipment Total Heating Rate [W] !TimeStep
348,1,BLOCK1:ZONE2,Zone Other Equipment Total Heating Rate [W] !Hourly
349,7,BLOCK1:ZONE2,Zone Other Equipment Total Heating Rate [W] !Daily [Value,Min,Hour,Minute,Max,Hour,Minute]
350,9,BLOCK1:ZONE2,Zone Other Equipment Total Heating Rate [W] !Monthly [Value,Min,Day,Hour,Minute,Max,Day,Hour,Minute]
351,11,BLOCK1:ZONE2,Zone Other Equipment Total Heating Rate [W] !RunPeriod [Value,Min,Month,Day,Hour,Minute,Max,Month,Day,Hour,Minute]
352,1,BLOCK1:ZONE3,Zone Windows Total Transmitted Solar Radiation Rate [W] !TimeStep
353,1,BLOCK1:ZONE3,Zone Windows Total Transmitted Solar Radiation Rate [W] !Hourly
354,7,BLOCK1:ZONE3,Zone Windows Total Transmitted Solar Radiation Rate [W] !Daily [Value,Min,Hour,Minute,Max,Hour,Minute]
355,9,BLOCK1:ZONE3,Zone Windows Total Transmitted Solar Radiation Rate [W] !Monthly [Value,Min,Day,Hour,Minute,Max,Day,Hour,Minute]
356,11,BLOCK1:ZONE3,Zone Windows Total Transmitted Solar Radiation Rate [W] !RunPeriod [Value,Min,Month,Day,Hour,Minute,Max,Month,Day,Hour,Minute]
357,1,BLOCK1:ZONE3,Zone Interior Windows Total Transmitted Beam Solar Radiation Rate [W] !TimeStep
358,1,BLOCK1:ZONE3,Zone Interior Windows Total Transmitted Beam Solar Radiation Rate [W] !Hourly
359,7,BLOCK1:ZONE3,Zone Interior Windows Total Transmitted Beam Solar Radiation Rate [W] !Daily [Value,Min,Hour,Minute,Max,Hour,Minute]
360,9,BLOCK1:ZONE3,Zone Interior Windows Total Transmitted Beam Solar Radiation Rate [W] !Monthly [Value,Min,Day,Hour,Minute,Max,Day,Hour,Minute]
361,11,BLOCK1:ZONE3,Zone Interior Windows Total Transmitted Beam Solar Radiation Rate [W] !RunPeriod [Value,Min,Month,Day,Hour,Minute,Max,Month,Day,Hour,Minute]
362,1,BLOCK1:ZONE3,Zone Interior Windows Total Transmitted Diffuse Solar Radiation Rate [W] !TimeStep
363,1,BLOCK1:ZONE3,Zone Interior Windows Total Transmitted Diffuse Solar Radiation Rate [W] !Hourly
364,7,BLOCK1:ZONE3,Zone Interior Windows Total Transmitted Diffuse Solar Radiation Rate [W] !Daily [Value,Min,Hour,Minute,Max,Hour,Minute]
365,9,BLOCK1:ZONE3,Zone Interior Windows Total Transmitted Diffuse Solar Radiation Rate [W] !Monthly [Value,Min,Day,Hour,Minute,Max,Day,Hour,Minute]
366,11,BLOCK1:ZONE3,Zone Interior Windows Total Transmitted Diffuse Solar Radiation Rate [W] !RunPeriod [Value,Min,Month,Day,Hour,Minute,Max,Month,Day,Hour,Minute]
367,1,BLOCK1:ZONE1,Zone Windows Total Transmitted Solar Radiation Rate [W] !TimeStep
368,1,BLOCK1:ZONE1,Zone Windows Total Transmitted Solar Radiation Rate [W] !Hourly
369,7,BLOCK1:ZONE1,Zone Windows Total Transmitted Solar Radiation Rate [W] !Daily [Value,Min,Hour,Minute,Max,Hour,Minute]
370,9,BLOCK1:ZONE1,Zone Windows Total Transmitted Solar Radiation Rate [W] !Monthly [Value,Min,Day,Hour,Minute,Max,Day,Hour,Minute]
371,11,BLOCK1:ZONE1,Zone Windows Total Transmitted Solar Radiation Rate [W] !RunPeriod [Value,Min,Month,Day,Hour,Minute,Max,Month,Day,Hour,Minute]
372,1,BLOCK1:ZONE1,Zone Interior Windows Total Transmitted Beam Solar Radiation Rate [W] !TimeStep
373,1,BLOCK1:ZONE1,Zone Interior Windows Total Transmitted Beam Solar Radiation Rate [W] !Hourly
374,7,BLOCK1:ZONE1,Zone Interior Windows Total Transmitted Beam Solar Radiation Rate [W] !Daily [Value,Min,Hour,Minute,Max,Hour,Minute]
375,9,BLOCK1:ZONE1,Zone Interior Windows Total Transmitted Beam Solar Radiation Rate [W] !Monthly [Value,Min,Day,Hour,Minute,Max,Day,Hour,Minute]
376,11,BLOCK1:ZONE1,Zone Interior Windows Total Transmitted Beam Solar Radiation Rate [W] !RunPeriod [Value,Min,Month,Day,Hour,Minute,Max,Month,Day,Hour,Minute]
377,1,BLOCK1:ZONE1,Zone Interior Windows Total Transmitted Diffuse Solar Radiation Rate [W] !TimeStep
378,1,BLOCK1:ZONE1,Zone Interior Windows Total Transmitted Diffuse Solar Radiation Rate [W] !Hourly
379,7,BLOCK1:ZONE1,Zone Interior Windows Total Transmitted Diffuse Solar Radiation Rate [W] !Daily [Value,Min,Hour,Minute,Max,Hour,Minute]
380,9,BLOCK1:ZONE1,Zone Interior Windows Total Transmitted Diffuse Solar Radiation Rate [W] !Monthly [Value,Min,Day,Hour,Minute,Max,Day,Hour,Minute]
381,11,BLOCK1:ZONE1,Zone Interior Windows Total Transmitted Diffuse Solar Radiation Rate [W] !RunPeriod [Value,Min,Month,Day,Hour,Minute,Max,Month,Day,Hour,Minute]
382,1,BLOCK1:ZONE2,Zone Windows Total Transmitted Solar Radiation Rate [W] !TimeStep
383,1,BLOCK1:ZONE2,Zone Windows Total Transmitted Solar Radiation Rate [W] !Hourly
384,7,BLOCK1:ZONE2,Zone Windows Total Transmitted Solar Radiation Rate [W] !Daily [Value,Min,Hour,Minute,Max,Hour,Minute]
385,9,BLOCK1:ZONE2,Zone Windows Total Transmitted Solar Radiation Rate [W] !Monthly [Value,Min,Day,Hour,Minute,Max,Day,Hour,Minute]
386,11,BLOCK1:ZONE2,Zone Windows Total Transmitted Solar Radiation Rate [W] !RunPeriod [Value,Min,Month,Day,Hour,Minute,Max,Month,Day,Hour,Minute]
387,1,BLOCK1:ZONE2,Zone Interior Windows Total Transmitted Beam Solar Radiation Rate [W] !TimeStep
388,1,BLOCK1:ZONE2,Zone Interior Windows Total Transmitted Beam Solar Radiation Rate [W] !Hourly
389,7,BLOCK1:ZONE2,Zone Interior Windows Total Transmitted Beam Solar Radiation Rate [W] !Daily [Value,Min,Hour,Minute,Max,Hour,Minute]
390,9,BLOCK1:ZONE2,Zone Interior Windows Total Transmitted Beam Solar Radiation Rate [W] !Monthly [Value,Min,Day,Hour,Minute,Max,Day,Hour,Minute]
391,11,BLOCK1:ZONE2,Zone Interior Windows Total Transmitted Beam Solar Radiation Rate [W] !RunPeriod [Value,Min,Month,Day,Hour,Minute,Max,Month,Day,Hour,Minute]
392,1,BLOCK1:ZONE2,Zone Interior Windows Total Transmitted Diffuse Solar Radiation Rate [W] !TimeStep
393,1,BLOCK1:ZONE2,Zone Interior Windows Total Transmitted Diffuse Solar Radiation Rate [W] !Hourly
394,7,BLOCK1:ZONE2,Zone Interior Windows Total Transmitted Diffuse Solar Radiation Rate [W] !Daily [Value,Min,Hour,Minute,Max,Hour,Minute]
395,9,BLOCK1:ZONE2,Zone Interior Windows Total Transmitted Diffuse Solar Radiation Rate [W] !Monthly [Value,Min,Day,Hour,Minute,Max,Day,Hour,Minute]
396,11,BLOCK1:ZONE2,Zone Interior Windows Total Transmitted Diffuse Solar Radiation Rate [W] !RunPeriod [Value,Min,Month,Day,Hour,Minute,Max,Month,Day,Hour,Minute]
397,1,BLOCK1:ZONE3,Zone Mean Radiant Temperature [C] !TimeStep
398,1,BLOCK1:ZONE3,Zone Mean Radiant Temperature [C] !Hourly
399,7,BLOCK1:ZONE3,Zone Mean Radiant Temperature [C] !Daily [Value,Min,Hour,Minute,Max,Hour,Minute]
400,9,BLOCK1:ZONE3,Zone Mean Radiant Temperature [C] !Monthly [Value,Min,Day,Hour,Minute,Max,Day,Hour,Minute]
401,11,BLOCK1:ZONE3,Zone Mean Radiant Temperature [C] !RunPeriod [Value,Min,Month,Day,Hour,Minute,Max,Month,Day,Hour,Minute]
402,1,BLOCK1:ZONE1,Zone Mean Radiant Temperature [C] !TimeStep
403,1,BLOCK1:ZONE1,Zone Mean Radiant Temperature [C] !Hourly
404,7,BLOCK1:ZONE1,Zone Mean Radiant Temperature [C] !Daily [Value,Min,Hour,Minute,Max,Hour,Minute]
405,9,BLOCK1:ZONE1,Zone Mean Radiant Temperature [C] !Monthly [Value,Min,Day,Hour,Minute,Max,Day,Hour,Minute]
406,11,BLOCK1:ZONE1,Zone Mean Radiant Temperature [C] !RunPeriod [Value,Min,Month,Day,Hour,Minute,Max,Month,Day,Hour,Minute]
407,1,BLOCK1:ZONE2,Zone Mean Radiant Temperature [C] !TimeStep
408,1,BLOCK1:ZONE2,Zone Mean Radiant Temperature [C] !Hourly
409,7,BLOCK1:ZONE2,Zone Mean Radiant Temperature [C] !Daily [Value,Min,Hour,Minute,Max,Hour,Minute]
410,9,BLOCK1:ZONE2,Zone Mean Radiant Temperature [C] !Monthly [Value,Min,Day,Hour,Minute,Max,Day,Hour,Minute]
411,11,BLOCK1:ZONE2,Zone Mean Radiant Temperature [C] !RunPeriod [Value,Min,Month,Day,Hour,Minute,Max,Month,Day,Hour,Minute]
412,1,BLOCK1:ZONE3,Zone Mean Air Temperature [C] !TimeStep
413,1,BLOCK1:ZONE3,Zone Mean Air Temperature [C] !Hourly
414,7,BLOCK1:ZONE3,Zone Mean Air Temperature [C] !Daily [Value,Min,Hour,Minute,Max,Hour,Minute]
415,9,BLOCK1:ZONE3,Zone Mean Air Temperature [C] !Monthly [Value,Min,Day,Hour,Minute,Max,Day,Hour,Minute]
416,11,BLOCK1:ZONE3,Zone Mean Air Temperature [C] !RunPeriod [Value,Min,Month,Day,Hour,Minute,Max,Month,Day,Hour,Minute]
417,1,BLOCK1:ZONE3,Zone Operative Temperature [C] !TimeStep
418,1,BLOCK1:ZONE3,Zone Operative Temperature [C] !Hourly
419,7,BLOCK1:ZONE3,Zone Operative Temperature [C] !Daily [Value,Min,Hour,Minute,Max,Hour,Minute]
420,9,BLOCK1:ZONE3,Zone Operative Temperature [C] !Monthly [Value,Min,Day,Hour,Minute,Max,Day,Hour,Minute]
421,11,BLOCK1:ZONE3,Zone Operative Temperature [C] !RunPeriod [Value,Min,Month,Day,Hour,Minute,Max,Month,Day,Hour,Minute]
422,1,BLOCK1:ZONE1,Zone Mean Air Temperature [C] !TimeStep
423,1,BLOCK1:ZONE1,Zone Mean Air Temperature [C] !Hourly
424,7,BLOCK1:ZONE1,Zone Mean Air Temperature [C] !Daily [Value,Min,Hour,Minute,Max,Hour,Minute]
425,9,BLOCK1:ZONE1,Zone Mean Air Temperature [C] !Monthly [Value,Min,Day,Hour,Minute,Max,Day,Hour,Minute]
426,11,BLOCK1:ZONE1,Zone Mean Air Temperature [C] !RunPeriod [Value,Min,Month,Day,Hour,Minute,Max,Month,Day,Hour,Minute]
427,1,BLOCK1:ZONE1,Zone Operative Temperature [C] !TimeStep
428,1,BLOCK1:ZONE1,Zone Operative Temperature [C] !Hourly
429,7,BLOCK1:ZONE1,Zone Operative Temperature [C] !Daily [Value,Min,Hour,Minute,Max,Hour,Minute]
430,9,BLOCK1:ZONE1,Zone Operative Temperature [C] !Monthly [Value,Min,Day,Hour,Minute,Max,Day,Hour,Minute]
431,11,BLOCK1:ZONE1,Zone Operative Temperature [C] !RunPeriod [Value,Min,Month,Day,Hour,Minute,Max,Month,Day,Hour,Minute]
432,1,BLOCK1:ZONE2,Zone Mean Air Temperature [C] !TimeStep
433,1,BLOCK1:ZONE2,Zone Mean Air Temperature [C] !Hourly
434,7,BLOCK1:ZONE2,Zone Mean Air Temperature [C] !Daily [Value,Min,Hour,Minute,Max,Hour,Minute]
435,9,BLOCK1:ZONE2,Zone Mean Air Temperature [C] !Monthly [Value,Min,Day,Hour,Minute,Max,Day,Hour,Minute]
436,11,BLOCK1:ZONE2,Zone Mean Air Temperature [C] !RunPeriod [Value,Min,Month,Day,Hour,Minute,Max,Month,Day,Hour,Minute]
437,1,BLOCK1:ZONE2,Zone Operative Temperature [C] !TimeStep
438,1,BLOCK1:ZONE2,Zone Operative Temperature [C] !Hourly
439,7,BLOCK1:ZONE2,Zone Operative Temperature [C] !Daily [Value,Min,Hour,Minute,Max,Hour,Minute]
440,9,BLOCK1:ZONE2,Zone Operative Temperature [C] !Monthly [Value,Min,Day,Hour,Minute,Max,Day,Hour,Minute]
441,11,BLOCK1:ZONE2,Zone Operative Temperature [C] !RunPeriod [Value,Min,Month,Day,Hour,Minute,Max,Month,Day,Hour,Minute]
442,1,BLOCK1:ZONE3,Zone Infiltration Sensible Heat Loss Energy [J] !TimeStep
443,1,BLOCK1:ZONE3,Zone Infiltration Sensible Heat Loss Energy [J] !Hourly
444,7,BLOCK1:ZONE3,Zone Infiltration Sensible Heat Loss Energy [J] !Daily [Value,Min,Hour,Minute,Max,Hour,Minute]
445,9,BLOCK1:ZONE3,Zone Infiltration Sensible Heat Loss Energy [J] !Monthly [Value,Min,Day,Hour,Minute,Max,Day,Hour,Minute]
446,11,BLOCK1:ZONE3,Zone Infiltration Sensible Heat Loss Energy [J] !RunPeriod [Value,Min,Month,Day,Hour,Minute,Max,Month,Day,Hour,Minute]
447,1,BLOCK1:ZONE3,Zone Infiltration Sensible Heat Gain Energy [J] !TimeStep
448,1,BLOCK1:ZONE3,Zone Infiltration Sensible Heat Gain Energy [J] !Hourly
449,7,BLOCK1:ZONE3,Zone Infiltration Sensible Heat Gain Energy [J] !Daily [Value,Min,Hour,Minute,Max,Hour,Minute]
450,9,BLOCK1:ZONE3,Zone Infiltration Sensible Heat Gain Energy [J] !Monthly [Value,Min,Day,Hour,Minute,Max,Day,Hour,Minute]
451,11,BLOCK1:ZONE3,Zone Infiltration Sensible Heat Gain Energy [J] !RunPeriod [Value,Min,Month,Day,Hour,Minute,Max,Month,Day,Hour,Minute]
452,1,BLOCK1:ZONE3,Zone Infiltration Air Change Rate [ach] !TimeStep
453,1,BLOCK1:ZONE3,Zone Infiltration Air Change Rate [ach] !Hourly
454,7,BLOCK1:ZONE3,Zone Infiltration Air Change Rate [ach] !Daily [Value,Min,Hour,Minute,Max,Hour,Minute]
455,9,BLOCK1:ZONE3,Zone Infiltration Air Change Rate [ach] !Monthly [Value,Min,Day,Hour,Minute,Max,Day,Hour,Minute]
456,11,BLOCK1:ZONE3,Zone Infiltration Air Change Rate [ach] !RunPeriod [Value,Min,Month,Day,Hour,Minute,Max,Month,Day,Hour,Minute]
457,1,BLOCK1:ZONE1,Zone Infiltration Sensible Heat Loss Energy [J] !TimeStep
458,1,BLOCK1:ZONE1,Zone Infiltration Sensible Heat Loss Energy [J] !Hourly
459,7,BLOCK1:ZONE1,Zone Infiltration Sensible Heat Loss Energy [J] !Daily [Value,Min,Hour,Minute,Max,Hour,Minute]
460,9,BLOCK1:ZONE1,Zone Infiltration Sensible Heat Loss Energy [J] !Monthly [Value,Min,Day,Hour,Minute,Max,Day,Hour,Minute]
461,11,BLOCK1:ZONE1,Zone Infiltration Sensible Heat Loss Energy [J] !RunPeriod [Value,Min,Month,Day,Hour,Minute,Max,Month,Day,Hour,Minute]
462,1,BLOCK1:ZONE1,Zone Infiltration Sensible Heat Gain Energy [J] !TimeStep
463,1,BLOCK1:ZONE1,Zone Infiltration Sensible Heat Gain Energy [J] !Hourly
464,7,BLOCK1:ZONE1,Zone Infiltration Sensible Heat Gain Energy [J] !Daily [Value,Min,Hour,Minute,Max,Hour,Minute]
465,9,BLOCK1:ZONE1,Zone Infiltration Sensible Heat Gain Energy [J] !Monthly [Value,Min,Day,Hour,Minute,Max,Day,Hour,Minute]
466,11,BLOCK1:ZONE1,Zone Infiltration Sensible Heat Gain Energy [J] !RunPeriod [Value,Min,Month,Day,Hour,Minute,Max,Month,Day,Hour,Minute]
467,1,BLOCK1:ZONE1,Zone Infiltration Air Change Rate [ach] !TimeStep
468,1,BLOCK1:ZONE1,Zone Infiltration Air Change Rate [ach] !Hourly
469,7,BLOCK1:ZONE1,Zone Infiltration Air Change Rate [ach] !Daily [Value,Min,Hour,Minute,Max,Hour,Minute]
470,9,BLOCK1:ZONE1,Zone Infiltration Air Change Rate [ach] !Monthly [Value,Min,Day,Hour,Minute,Max,Day,Hour,Minute]
471,11,BLOCK1:ZONE1,Zone Infiltration Air Change Rate [ach] !RunPeriod [Value,Min,Month,Day,Hour,Minute,Max,Month,Day,Hour,Minute]
472,1,BLOCK1:ZONE2,Zone Infiltration Sensible Heat Loss Energy [J] !TimeStep
473,1,BLOCK1:ZONE2,Zone Infiltration Sensible Heat Loss Energy [J] !Hourly
474,7,BLOCK1:ZONE2,Zone Infiltration Sensible Heat Loss Energy [J] !Daily [Value,Min,Hour,Minute,Max,Hour,Minute]
475,9,BLOCK1:ZONE2,Zone Infiltration Sensible Heat Loss Energy [J] !Monthly [Value,Min,Day,Hour,Minute,Max,Day,Hour,Minute]
476,11,BLOCK1:ZONE2,Zone Infiltration Sensible Heat Loss Energy [J] !RunPeriod [Value,Min,Month,Day,Hour,Minute,Max,Month,Day,Hour,Minute]
477,1,BLOCK1:ZONE2,Zone Infiltration Sensible Heat Gain Energy [J] !TimeStep
478,1,BLOCK1:ZONE2,Zone Infiltration Sensible Heat Gain Energy [J] !Hourly
479,7,BLOCK1:ZONE2,Zone Infiltration Sensible Heat Gain Energy [J] !Daily [Value,Min,Hour,Minute,Max,Hour,Minute]
480,9,BLOCK1:ZONE2,Zone Infiltration Sensible Heat Gain Energy [J] !Monthly [Value,Min,Day,Hour,Minute,Max,Day,Hour,Minute]
481,11,BLOCK1:ZONE2,Zone Infiltration Sensible Heat Gain Energy [J] !RunPeriod [Value,Min,Month,Day,Hour,Minute,Max,Month,Day,Hour,Minute]
482,1,BLOCK1:ZONE2,Zone Infiltration Air Change Rate [ach] !TimeStep
483,1,BLOCK1:ZONE2,Zone Infiltration Air Change Rate [ach] !Hourly
484,7,BLOCK1:ZONE2,Zone Infiltration Air Change Rate [ach] !Daily [Value,Min,Hour,Minute,Max,Hour,Minute]
485,9,BLOCK1:ZONE2,Zone Infiltration Air Change Rate [ach] !Monthly [Value,Min,Day,Hour,Minute,Max,Day,Hour,Minute]
486,11,BLOCK1:ZONE2,Zone Infiltration Air Change Rate [ach] !RunPeriod [Value,Min,Month,Day,Hour,Minute,Max,Month,Day,Hour,Minute]
487,1,BLOCK1:ZONE3,Zone Ventilation Sensible Heat Loss Energy [J] !TimeStep
488,1,BLOCK1:ZONE3,Zone Ventilation Sensible Heat Loss Energy [J] !Hourly
489,7,BLOCK1:ZONE3,Zone Ventilation Sensible Heat Loss Energy [J] !Daily [Value,Min,Hour,Minute,Max,Hour,Minute]
490,9,BLOCK1:ZONE3,Zone Ventilation Sensible Heat Loss Energy [J] !Monthly [Value,Min,Day,Hour,Minute,Max,Day,Hour,Minute]
491,11,BLOCK1:ZONE3,Zone Ventilation Sensible Heat Loss Energy [J] !RunPeriod [Value,Min,Month,Day,Hour,Minute,Max,Month,Day,Hour,Minute]
492,1,BLOCK1:ZONE3,Zone Ventilation Sensible Heat Gain Energy [J] !TimeStep
493,1,BLOCK1:ZONE3,Zone Ventilation Sensible Heat Gain Energy [J] !Hourly
494,7,BLOCK1:ZONE3,Zone Ventilation Sensible Heat Gain Energy [J] !Daily [Value,Min,Hour,Minute,Max,Hour,Minute]
495,9,BLOCK1:ZONE3,Zone Ventilation Sensible Heat Gain Energy [J] !Monthly [Value,Min,Day,Hour,Minute,Max,Day,Hour,Minute]
496,11,BLOCK1:ZONE3,Zone Ventilation Sensible Heat Gain Energy [J] !RunPeriod [Value,Min,Month,Day,Hour,Minute,Max,Month,Day,Hour,Minute]
497,1,BLOCK1:ZONE3,Zone Ventilation Air Change Rate [ach] !TimeStep
498,1,BLOCK1:ZONE3,Zone Ventilation Air Change Rate [ach] !Hourly
499,7,BLOCK1:ZONE3,Zone Ventilation Air Change Rate [ach] !Daily [Value,Min,Hour,Minute,Max,Hour,Minute]
500,9,BLOCK1:ZONE3,Zone Ventilation Air Change Rate [ach] !Monthly [Value,Min,Day,Hour,Minute,Max,Day,Hour,Minute]
501,11,BLOCK1:ZONE3,Zone Ventilation Air Change Rate [ach] !RunPeriod [Value,Min,Month,Day,Hour,Minute,Max,Month,Day,Hour,Minute]
502,1,BLOCK1:ZONE3,Zone Ventilation Fan Electric Energy [J] !TimeStep
539,1,BLOCK1:ZONE3,Zone Ventilation Fan Electric Energy [J] !Hourly
540,7,BLOCK1:ZONE3,Zone Ventilation Fan Electric Energy [J] !Daily [Value,Min,Hour,Minute,Max,Hour,Minute]
541,9,BLOCK1:ZONE3,Zone Ventilation Fan Electric Energy [J] !Monthly [Value,Min,Day,Hour,Minute,Max,Day,Hour,Minute]
542,11,BLOCK1:ZONE3,Zone Ventilation Fan Electric Energy [J] !RunPeriod [Value,Min,Month,Day,Hour,Minute,Max,Month,Day,Hour,Minute]
543,1,BLOCK1:ZONE1,Zone Ventilation Sensible Heat Loss Energy [J] !TimeStep
544,1,BLOCK1:ZONE1,Zone Ventilation Sensible Heat Loss Energy [J] !Hourly